# TStellate2_CT2 Optimisation
# 20130828+16:12:18
 
#param.w.x[lsr][ts] = 0.0021116	[1e-07,0.3]
#param.w.x[hsr][ts] = 0.001699	[1e-07,0.3]
#param.w.x[ds][ts] = 0.00041157	[1e-07,0.3]
#param.w.x[tv][ts] = 0.00015319	[1e-07,0.3]
#param.w.x[glg][ts] = 0.00038271	[1e-07,0.3]
# final error=255.184778
# Threshold level 20 
# Threshold rate 975 
# TS exemplar RMP -60.9
# TS exemplar CF 9100
# CV RMS errors:	
# Penalties :	
# IV RMS errors:	
# IV Penalties :	
# Final Error  255.185   255.185
# Time	 IV @spl=20 (mV)	 IV @spl=30 (mV)	 IV @spl=40 (mV)
-20.00	-65.000000	-65.000000	-65.000000
-19.90	-64.869248	-64.869248	-64.869248
-19.80	-64.745181	-64.745181	-64.745181
-19.70	-64.627368	-64.627368	-64.627368
-19.60	-64.515507	-64.515507	-64.515507
-19.50	-64.409324	-64.409324	-64.409324
-19.40	-64.308557	-64.308557	-64.308557
-19.30	-64.212957	-64.212957	-64.212957
-19.20	-64.122281	-64.122281	-64.122281
-19.10	-64.036293	-64.036293	-64.036293
-19.00	-63.954716	-63.954716	-63.954716
-18.90	-63.877337	-63.877337	-63.877337
-18.80	-63.803956	-63.803956	-63.803956
-18.70	-63.734384	-63.734384	-63.734384
-18.60	-63.668439	-63.668439	-63.668439
-18.50	-63.605948	-63.605948	-63.605948
-18.40	-63.546743	-63.546743	-63.546743
-18.30	-63.490665	-63.490665	-63.490665
-18.20	-63.437561	-63.437561	-63.437561
-18.10	-63.387285	-63.387285	-63.387285
-18.00	-63.339696	-63.339696	-63.339696
-17.90	-63.294636	-63.294636	-63.294636
-17.80	-63.251959	-63.251959	-63.251959
-17.70	-63.211544	-63.211544	-63.211544
-17.60	-63.173277	-63.173277	-63.173277
-17.50	-63.137050	-63.137050	-63.137050
-17.40	-63.102759	-63.102759	-63.102759
-17.30	-63.070307	-63.070307	-63.070307
-17.20	-63.039599	-63.039599	-63.039599
-17.10	-63.010547	-63.010547	-63.010547
-17.00	-62.983064	-62.983064	-62.983064
-16.90	-62.957482	-62.957069	-62.957069
-16.80	-62.933598	-62.932487	-62.932487
-16.70	-62.872887	-62.870887	-62.909243
-16.60	-62.825029	-62.783684	-62.810584
-16.50	-62.748371	-62.717412	-62.659977
-16.40	-62.690364	-62.666576	-62.477037
-16.30	-62.608249	-62.590642	-62.270407
-16.20	-62.548197	-62.457482	-62.006596
-16.10	-62.504418	-62.247365	-61.783495
-16.00	-62.398010	-62.022864	-61.545708
-15.90	-62.322539	-61.755066	-61.328561
-15.80	-62.231241	-61.453841	-61.046606
-15.70	-62.054983	-61.207230	-60.778922
-15.60	-61.819532	-60.997434	-60.497316
-15.50	-61.506374	-60.697236	-60.113334
-15.40	-60.990261	-60.382981	-59.206855
-15.30	-60.524345	-60.049366	-58.834302
-15.20	-60.021053	-59.752613	-58.570851
-15.10	-59.633735	-59.496518	-58.589267
-15.00	-59.191360	-59.188909	-58.806122
-14.90	-58.801090	-58.654157	-58.876387
-14.80	-58.384502	-57.476269	-58.319757
-14.70	-57.892683	-56.651415	-57.693233
-14.60	-57.284589	-56.247745	-57.492489
-14.50	-56.105001	-56.153956	-57.523009
-14.40	-55.631924	-56.125692	-57.655843
-14.30	-54.981338	-56.775567	-57.629612
-14.20	-54.379135	-56.903812	-56.908205
-14.10	-54.518089	-56.956367	-56.504979
-14.00	-54.359991	-57.265391	-56.084266
-13.90	-54.048629	-57.343388	-56.073709
-13.80	-54.029232	-57.761118	-56.218276
-13.70	-53.363448	-57.978091	-56.199464
-13.60	-53.278154	-57.970918	-55.878277
-13.50	-52.966228	-57.626560	-55.109994
-13.40	-53.379359	-56.678858	-53.236773
-13.30	-53.575537	-56.417226	-50.734712
-13.20	-53.857748	-56.116599	-48.836547
-13.10	-53.796431	-56.349413	-49.210219
-13.00	-53.732187	-56.356568	-50.603666
-12.90	-53.574881	-55.902447	-53.464148
-12.80	-53.727536	-54.271141	-55.615857
-12.70	-53.578399	-52.435136	-57.231036
-12.60	-53.749756	-50.639276	-58.030784
-12.50	-54.499672	-49.862696	-58.128163
-12.40	-55.535219	-50.385958	-57.236413
-12.30	-56.574295	-50.975471	-56.559067
-12.20	-57.280818	-52.615084	-55.518180
-12.10	-57.450496	-53.703624	-55.587958
-12.00	-57.179536	-54.403666	-55.462996
-11.90	-56.517214	-54.857153	-55.457893
-11.80	-55.361273	-55.082286	-55.458389
-11.70	-54.783896	-55.135927	-54.654030
-11.60	-54.399767	-55.706787	-53.936665
-11.50	-53.843007	-55.809990	-53.064514
-11.40	-53.999433	-55.324100	-53.096058
-11.30	-53.587011	-55.684274	-53.477104
-11.20	-55.131143	-55.300259	-54.611244
-11.10	-56.481029	-56.472538	-54.932712
-11.00	-58.240343	-57.319162	-56.255756
-10.90	-59.146121	-57.945488	-57.385154
-10.80	-59.304201	-58.042768	-59.285118
-10.70	-58.738078	-58.330137	-60.514508
-10.60	-58.690114	-58.391705	-61.186963
-10.50	-58.583851	-58.194941	-61.450049
-10.40	-59.059425	-58.017238	-61.522117
-10.30	-59.453085	-57.544215	-61.510054
-10.20	-59.653622	-56.836036	-61.490097
-10.10	-59.488341	-55.737552	-61.366420
-10.00	-58.582496	-55.846393	-61.239057
-9.90	-58.188056	-56.238950	-61.114232
-9.80	-57.882229	-57.660684	-60.848476
-9.70	-58.140431	-58.655441	-60.587725
-9.60	-58.343631	-59.061803	-60.409745
-9.50	-58.419047	-58.607232	-60.218929
-9.40	-58.290397	-58.185432	-60.052047
-9.30	-57.896464	-57.829057	-59.941262
-9.20	-57.083106	-57.851097	-59.775295
-9.10	-56.576714	-57.620082	-59.558677
-9.00	-55.701688	-57.149368	-59.292272
-8.90	-55.974409	-56.666733	-59.054947
-8.80	-56.148433	-55.786370	-58.591406
-8.70	-56.588593	-55.513599	-57.964963
-8.60	-56.222038	-55.805205	-57.289689
-8.50	-55.956966	-56.191471	-57.026557
-8.40	-56.099694	-56.764801	-56.975466
-8.30	-56.770084	-57.124600	-57.161233
-8.20	-57.894194	-57.390778	-56.810391
-8.10	-58.564573	-57.303565	-56.326127
-8.00	-58.807425	-57.264386	-56.115320
-7.90	-58.838679	-57.114841	-56.052793
-7.80	-58.638190	-56.767253	-55.611902
-7.70	-58.172411	-57.222695	-55.550993
-7.60	-57.135264	-57.520345	-55.058092
-7.50	-56.555664	-58.073568	-54.624029
-7.40	-56.008165	-58.342159	-54.137309
-7.30	-55.960869	-58.083797	-53.327798
-7.20	-54.874886	-57.425965	-53.424765
-7.10	-54.666992	-56.896365	-53.404752
-7.00	-54.352604	-56.615278	-54.564195
-6.90	-54.720674	-56.590419	-55.457020
-6.80	-55.743388	-56.257508	-55.276582
-6.70	-56.405231	-55.314011	-55.748025
-6.60	-57.261420	-54.488665	-55.941153
-6.50	-57.402927	-53.101646	-56.775275
-6.40	-57.026361	-53.290167	-57.638461
-6.30	-56.748542	-53.456373	-57.949525
-6.20	-56.507293	-53.144422	-57.326820
-6.10	-56.313908	-53.534777	-56.206083
-6.00	-55.056281	-53.942087	-55.694657
-5.90	-54.510969	-54.533872	-55.343816
-5.80	-53.926235	-55.252271	-56.307731
-5.70	-54.684977	-55.931070	-57.113187
-5.60	-55.671840	-55.947889	-57.916250
-5.50	-56.160270	-56.576844	-58.285643
-5.40	-56.717130	-56.811276	-58.349690
-5.30	-56.804684	-56.916885	-58.041576
-5.20	-57.103263	-57.351723	-56.875020
-5.10	-57.011478	-57.492128	-56.245054
-5.00	-56.700915	-57.917776	-56.176306
-4.90	-56.175353	-57.978921	-56.543429
-4.80	-55.472994	-57.910336	-57.369573
-4.70	-54.833508	-57.986178	-57.687011
-4.60	-55.094847	-58.364147	-57.427265
-4.50	-55.802441	-58.851810	-56.949334
-4.40	-57.485674	-59.135915	-57.089009
-4.30	-58.644480	-59.154691	-57.336325
-4.20	-59.242291	-59.093984	-57.856610
-4.10	-59.552298	-59.012677	-57.547136
-4.00	-59.626362	-58.799119	-56.968135
-3.90	-59.529524	-58.589005	-56.453200
-3.80	-59.429966	-58.285604	-56.536493
-3.70	-59.065682	-57.792798	-57.146150
-3.60	-58.712185	-56.847355	-57.887058
-3.50	-58.215035	-55.896640	-58.223374
-3.40	-57.278432	-55.381123	-58.225141
-3.30	-56.950531	-55.428076	-57.839950
-3.20	-56.576829	-55.691779	-57.109827
-3.10	-56.694251	-56.141369	-56.869424
-3.00	-56.653750	-56.028961	-56.803420
-2.90	-56.104045	-56.434414	-57.204874
-2.80	-54.707297	-56.830054	-57.476867
-2.70	-54.046918	-57.359862	-57.377686
-2.60	-53.118878	-57.631432	-56.695442
-2.50	-53.143842	-57.663840	-56.545455
-2.40	-53.275684	-57.432240	-56.213066
-2.30	-53.212209	-57.014187	-56.412311
-2.20	-53.583870	-56.115459	-56.451503
-2.10	-54.250867	-54.972618	-55.971193
-2.00	-55.356047	-53.705270	-54.771442
-1.90	-56.229060	-52.585733	-54.085218
-1.80	-56.319873	-51.147469	-53.252281
-1.70	-55.138492	-51.593829	-53.344388
-1.60	-54.330387	-51.852351	-54.137894
-1.50	-53.815480	-53.481378	-55.439549
-1.40	-54.800130	-54.795515	-56.431631
-1.30	-56.209081	-55.269968	-56.925509
-1.20	-57.545212	-55.639882	-56.755169
-1.10	-57.932350	-55.959362	-55.937626
-1.00	-58.356843	-56.650447	-55.411218
-0.90	-58.405615	-57.282009	-54.658563
-0.80	-58.885093	-57.130943	-54.162608
-0.70	-59.319811	-57.076290	-52.190808
-0.60	-59.569741	-56.536050	-50.465383
-0.50	-59.450865	-56.819657	-48.862534
-0.40	-58.730563	-56.995118	-48.761552
-0.30	-58.365883	-57.738695	-50.509601
-0.20	-57.870922	-58.274737	-52.934537
-0.10	-57.760480	-58.922439	-55.883582
0.00	-57.716124	-59.290615	-58.022032
0.10	-56.978398	-59.398462	-59.037600
0.20	-56.676978	-59.283578	-59.147237
0.30	-56.172942	-58.923193	-58.833420
0.40	-55.596512	-58.347140	-58.907879
0.50	-55.345920	-57.508312	-58.993766
0.60	-55.429724	-56.136539	-59.535979
0.70	-55.837415	-55.713432	-59.898519
0.80	-56.565770	-55.449917	-60.173977
0.90	-56.693894	-56.257955	-60.266767
1.00	-56.030855	-57.093585	-60.160200
1.10	-55.726008	-57.565705	-59.878747
1.20	-55.892585	-57.629598	-59.691461
1.30	-56.364808	-57.034231	-59.501651
1.40	-56.908951	-57.090651	-59.310441
1.50	-56.908855	-56.991196	-59.055777
1.60	-55.731303	-57.175865	-58.679159
1.70	-55.390364	-57.501397	-58.348469
1.80	-54.678888	-57.753031	-57.830739
1.90	-55.479511	-57.792218	-57.075120
2.00	-55.781136	-57.678739	-56.507002
2.10	-56.438975	-57.392374	-56.304851
2.20	-56.860299	-57.032981	-56.219935
2.30	-57.390395	-56.620217	-56.357944
2.40	-57.739929	-56.042271	-56.039782
2.50	-57.403626	-55.386059	-55.508805
2.60	-56.855917	-54.253575	-55.148660
2.70	-56.786157	-53.254980	-54.555526
2.80	-57.320781	-52.405618	-52.993111
2.90	-57.868900	-51.391151	-51.924598
3.00	-58.496970	-48.957080	-51.315347
3.10	-58.833528	-46.469888	-51.692922
3.20	-58.543268	-45.643927	-53.192799
3.30	-58.399101	-46.769394	-53.845089
3.40	-58.030806	-49.210505	-55.039284
3.50	-58.043278	-51.394050	-55.945429
3.60	-58.096400	-51.938424	-57.077056
3.70	-58.092974	-52.053347	-58.394200
3.80	-58.065867	-52.969213	-59.316749
3.90	-57.884089	-54.656044	-59.435327
4.00	-57.958564	-57.234835	-58.806416
4.10	-57.818234	-59.325332	-58.223772
4.20	-57.798255	-60.616311	-57.590556
4.30	-57.344086	-61.206007	-58.026183
4.40	-56.950093	-61.482906	-58.594400
4.50	-56.558711	-61.519477	-59.468475
4.60	-56.962089	-61.494809	-59.845477
4.70	-57.585006	-61.446384	-59.438388
4.80	-58.334062	-61.258122	-58.120213
4.90	-58.724601	-60.598254	-55.776485
5.00	-58.763504	-59.087792	-52.530449
5.10	-58.530623	-56.737960	-46.908546
5.20	-57.833653	-53.505028	-39.214939
5.30	-56.292652	-47.919076	-28.726235
5.40	-54.289601	-40.768716	-22.889682
5.50	-51.421649	-32.297734	-23.791532
5.60	-47.392095	-23.998475	-28.436093
5.70	-40.645244	-22.603001	-36.627005
5.80	-33.670835	-26.214578	-44.634427
5.90	-27.731215	-33.604384	-51.097867
6.00	-26.486130	-42.357896	-55.051339
6.10	-28.708296	-49.097461	-56.794039
6.20	-34.220224	-53.209922	-57.609325
6.30	-40.802735	-55.136574	-57.998792
6.40	-46.716270	-55.926568	-58.380921
6.50	-50.363686	-56.438051	-58.776071
6.60	-51.824296	-56.772449	-58.960331
6.70	-51.961178	-57.092845	-59.156259
6.80	-51.416339	-57.386788	-59.221816
6.90	-50.732249	-57.628307	-59.178975
7.00	-49.866383	-57.923050	-59.166014
7.10	-49.487136	-58.288938	-59.156744
7.20	-49.602641	-58.553816	-59.105730
7.30	-49.866316	-58.812518	-59.044233
7.40	-50.106871	-58.963015	-58.800703
7.50	-50.459367	-59.022987	-58.041882
7.60	-50.856962	-58.880521	-56.855601
7.70	-51.117309	-58.495949	-55.502755
7.80	-51.419100	-57.890563	-54.296098
7.90	-51.736021	-56.935113	-52.765877
8.00	-51.816860	-55.389766	-51.056291
8.10	-51.689433	-53.837613	-48.017291
8.20	-51.477526	-51.521900	-43.862695
8.30	-50.880333	-48.400036	-39.465536
8.40	-50.043903	-43.275449	-36.231821
8.50	-49.655251	-39.714092	-34.109727
8.60	-49.434816	-34.624201	-35.049257
8.70	-49.257159	-33.192735	-35.101623
8.80	-48.595560	-34.649049	-38.240045
8.90	-47.218036	-38.535935	-41.701035
9.00	-44.623432	-44.015919	-45.853388
9.10	-42.297044	-47.452488	-49.441187
9.20	-39.818736	-49.244584	-50.732327
9.30	-38.682264	-49.106183	-52.017672
9.40	-38.226319	-49.825648	-52.164990
9.50	-38.605854	-49.845603	-52.790445
9.60	-40.023561	-50.332928	-53.128729
9.70	-41.966106	-50.971188	-53.061917
9.80	-43.790901	-51.705956	-52.502995
9.90	-44.814261	-52.359383	-51.456403
10.00	-44.478439	-52.269701	-49.992258
10.10	-44.293172	-51.820874	-48.008239
10.20	-44.051963	-51.198462	-45.502449
10.30	-45.730533	-50.356179	-42.567207
10.40	-47.161088	-48.745107	-41.398537
10.50	-48.369369	-47.056188	-41.040669
10.60	-49.061568	-45.709552	-41.843148
10.70	-48.968655	-44.455000	-41.705878
10.80	-48.368730	-42.843322	-41.375929
10.90	-47.589769	-41.266480	-40.339565
11.00	-46.901368	-40.088622	-39.522604
11.10	-46.074776	-40.445804	-39.234923
11.20	-45.371661	-40.961460	-39.867707
11.30	-43.993829	-42.029287	-42.272770
11.40	-43.119650	-43.553225	-45.114824
11.50	-41.140168	-45.141780	-47.297667
11.60	-40.498694	-46.717204	-47.263972
11.70	-40.235666	-47.516127	-46.763777
11.80	-39.998328	-47.142293	-46.769283
11.90	-40.619513	-46.688052	-47.883400
12.00	-41.700476	-45.388064	-49.192873
12.10	-43.495737	-44.823576	-50.005904
12.20	-45.694768	-44.179493	-50.224017
12.30	-47.170199	-44.095382	-49.802711
12.40	-48.242295	-44.039604	-48.708351
12.50	-48.387681	-44.555868	-47.379475
12.60	-47.937503	-43.970006	-46.680699
12.70	-47.757846	-44.289144	-46.175314
12.80	-47.080855	-44.400185	-46.093142
12.90	-45.922394	-45.643466	-45.497118
13.00	-44.876182	-46.743826	-45.058877
13.10	-44.639908	-47.318999	-44.184435
13.20	-45.570924	-46.707291	-43.475743
13.30	-46.865671	-46.472059	-42.408824
13.40	-47.083437	-46.441359	-42.167644
13.50	-46.597475	-46.698117	-42.265849
13.60	-45.709408	-46.015537	-42.623629
13.70	-44.531296	-45.019390	-43.218762
13.80	-43.215263	-44.264174	-43.882165
13.90	-43.096426	-44.452712	-44.972783
14.00	-43.446763	-44.886758	-45.675826
14.10	-44.275227	-45.238553	-46.193789
14.20	-45.147755	-45.601688	-45.701472
14.30	-45.278826	-45.343351	-44.939753
14.40	-45.511245	-45.266879	-45.276601
14.50	-45.410479	-44.698892	-45.672609
14.60	-45.827632	-44.120961	-46.274596
14.70	-45.642871	-43.170567	-45.818133
14.80	-45.550255	-42.780107	-45.297710
14.90	-45.273948	-43.527288	-44.648488
15.00	-44.783052	-44.639577	-44.869731
15.10	-43.810458	-45.806242	-45.820537
15.20	-43.420738	-46.270951	-46.448389
15.30	-43.440382	-46.107436	-46.488831
15.40	-44.237038	-46.324072	-45.173939
15.50	-45.537436	-47.141807	-44.013757
15.60	-46.817098	-47.639568	-43.237075
15.70	-47.953185	-47.306050	-43.610747
15.80	-48.835566	-46.311294	-44.759609
15.90	-48.601666	-44.358189	-45.425000
16.00	-47.636513	-43.761579	-45.788087
16.10	-45.975615	-42.784872	-45.443664
16.20	-44.602332	-43.215722	-44.940975
16.30	-44.113770	-43.491190	-44.483254
16.40	-44.070997	-44.037622	-43.676534
16.50	-43.965849	-43.939952	-43.372716
16.60	-43.666601	-43.367152	-42.845316
16.70	-43.712627	-43.178238	-43.335354
16.80	-43.555035	-43.499354	-43.483104
16.90	-43.411900	-44.443051	-43.865003
17.00	-42.300654	-45.582574	-44.751592
17.10	-42.292544	-45.608348	-45.515370
17.20	-42.619355	-45.911069	-47.002246
17.30	-43.893184	-45.679739	-47.747746
17.40	-45.149020	-45.886475	-48.013741
17.50	-45.764726	-45.105568	-47.516716
17.60	-46.968915	-44.595746	-46.067071
17.70	-47.776626	-43.487439	-44.668079
17.80	-48.290405	-42.573174	-43.454716
17.90	-48.187065	-41.384076	-43.502014
18.00	-47.788442	-40.470618	-43.871199
18.10	-47.814303	-39.337137	-44.520353
18.20	-47.921025	-38.913536	-44.033516
18.30	-47.753883	-40.038335	-43.871326
18.40	-46.770274	-42.001540	-43.650213
18.50	-44.590499	-44.315798	-44.024827
18.60	-42.992655	-45.802521	-44.006768
18.70	-41.779769	-46.201045	-43.045260
18.80	-41.710986	-46.270425	-41.698847
18.90	-41.969683	-46.747946	-40.866371
19.00	-42.992032	-47.611895	-41.822465
19.10	-44.002171	-48.129517	-43.529806
19.20	-44.658061	-48.064365	-45.763383
19.30	-45.547130	-46.869104	-47.501937
19.40	-45.674530	-45.021588	-48.499356
19.50	-46.024017	-43.706044	-49.188817
19.60	-45.905482	-43.211951	-49.062928
19.70	-45.316671	-43.285255	-48.784026
19.80	-45.524122	-43.075194	-47.839179
19.90	-45.113172	-42.645175	-47.795057
20.00	-44.761729	-41.550619	-47.415694
20.10	-44.375672	-41.101442	-47.292833
20.20	-44.398345	-41.756320	-46.896458
20.30	-45.350715	-43.106276	-46.140623
20.40	-45.874169	-44.624961	-45.280834
20.50	-46.404275	-44.905180	-43.778386
20.60	-46.081368	-44.542563	-42.831130
20.70	-45.078599	-44.409409	-41.700212
20.80	-44.521763	-45.037618	-41.756129
20.90	-43.519616	-45.820347	-41.234773
21.00	-43.756160	-46.331029	-41.859933
21.10	-44.095031	-46.403307	-41.729712
21.20	-44.389173	-45.788272	-42.845810
21.30	-44.281890	-45.940631	-44.023733
21.40	-43.698125	-46.393431	-46.077442
21.50	-43.195926	-47.029691	-47.795114
21.60	-42.194506	-47.319147	-48.524326
21.70	-41.563895	-47.606467	-48.559198
21.80	-42.072835	-47.265013	-48.090567
21.90	-43.257650	-46.535687	-47.336814
22.00	-45.155757	-46.127660	-46.709487
22.10	-46.813952	-45.932504	-46.149513
22.20	-47.672703	-46.146107	-45.728746
22.30	-47.662240	-46.637124	-45.208322
22.40	-47.746845	-46.682364	-44.681836
22.50	-47.234500	-47.498804	-44.159185
22.60	-47.108507	-48.257468	-43.274692
22.70	-46.674251	-48.856261	-42.741691
22.80	-46.299286	-48.935685	-42.052372
22.90	-45.596107	-48.224452	-42.302660
23.00	-44.776019	-47.313775	-42.200849
23.10	-43.129213	-46.211453	-41.772065
23.20	-42.933881	-45.843634	-40.881133
23.30	-43.339890	-44.700151	-39.790332
23.40	-45.134917	-44.481596	-39.660727
23.50	-46.779251	-43.470969	-40.142227
23.60	-47.677749	-43.656314	-41.166825
23.70	-47.638057	-43.155593	-43.237378
23.80	-46.510545	-43.549576	-44.652082
23.90	-44.895773	-43.820238	-46.627411
24.00	-44.419887	-44.199816	-47.841688
24.10	-45.030338	-44.820031	-48.802462
24.20	-46.509203	-45.603055	-49.156415
24.30	-47.772140	-46.392119	-48.681842
24.40	-47.689161	-47.315157	-47.715595
24.50	-47.571547	-47.732126	-46.069263
24.60	-47.516924	-48.484553	-44.713615
24.70	-47.864789	-48.342326	-43.807429
24.80	-47.934794	-48.036663	-43.961422
24.90	-47.634832	-47.351722	-44.524587
25.00	-47.232880	-47.186102	-44.598813
25.10	-46.363405	-46.927734	-43.468950
25.20	-45.723450	-46.474761	-43.453225
25.30	-43.999646	-45.949855	-43.578544
25.40	-43.077851	-45.509253	-44.258839
25.50	-42.855023	-45.636347	-44.326884
25.60	-42.994154	-46.336888	-44.079962
25.70	-42.657619	-46.489962	-42.953919
25.80	-40.840403	-46.231020	-42.265280
25.90	-40.614349	-45.714164	-41.481362
26.00	-41.045271	-45.420377	-41.773350
26.10	-43.137905	-45.726236	-42.595910
26.20	-45.124388	-45.910145	-43.200744
26.30	-45.101188	-45.787638	-44.042571
26.40	-44.165171	-45.298055	-44.457799
26.50	-43.779450	-44.402952	-44.927532
26.60	-44.587907	-43.559216	-45.459473
26.70	-46.441363	-43.143963	-45.521167
26.80	-48.253137	-44.140226	-45.254624
26.90	-48.312516	-44.951416	-45.290610
27.00	-48.410984	-45.820085	-45.501549
27.10	-48.071687	-45.682647	-46.430828
27.20	-48.192660	-45.219650	-46.741076
27.30	-47.682985	-45.166319	-46.758795
27.40	-46.469656	-45.185923	-45.743876
27.50	-45.178817	-45.922211	-44.307061
27.60	-43.131072	-46.157545	-43.426021
27.70	-42.631324	-46.185767	-43.364764
27.80	-42.127649	-46.077655	-42.917160
27.90	-43.418818	-45.853834	-41.693599
28.00	-44.326878	-46.052244	-41.250006
28.10	-45.324691	-46.011877	-40.028255
28.20	-46.147172	-46.020599	-41.319860
28.30	-46.878064	-45.165366	-42.748026
28.40	-47.627970	-43.823359	-44.817483
28.50	-47.651925	-42.223393	-45.681878
28.60	-46.751141	-40.764172	-46.182681
28.70	-45.154120	-41.139226	-46.923717
28.80	-44.356691	-42.425874	-47.493691
28.90	-44.101398	-45.153044	-47.607787
29.00	-44.988179	-47.632892	-46.737762
29.10	-46.468512	-49.732182	-45.361215
29.20	-47.487380	-51.072637	-44.205107
29.30	-48.032428	-51.488727	-43.774932
29.40	-48.170763	-50.585980	-43.640744
29.50	-48.088759	-49.157976	-43.224853
29.60	-47.767378	-48.384607	-43.362410
29.70	-46.971293	-48.389243	-42.996556
29.80	-45.478434	-49.241351	-44.124226
29.90	-43.741240	-49.773169	-45.133025
30.00	-42.874833	-49.505746	-46.361388
30.10	-42.473874	-48.611690	-48.110762
30.20	-42.421901	-47.028685	-49.283464
30.30	-42.583356	-46.071717	-49.801155
30.40	-43.191007	-45.391512	-49.651964
30.50	-45.108290	-45.089129	-48.481794
30.60	-47.363186	-45.606760	-47.651342
30.70	-49.290749	-46.113011	-47.150342
30.80	-50.368433	-46.882028	-46.937020
30.90	-50.848924	-47.571978	-47.217657
31.00	-50.813779	-47.594963	-46.628457
31.10	-50.284965	-47.089331	-44.598250
31.20	-49.701088	-46.933785	-42.664638
31.30	-48.279725	-45.851102	-42.300658
31.40	-47.585209	-45.313814	-42.654229
31.50	-46.774550	-44.362487	-44.382776
31.60	-45.969268	-43.746675	-44.739316
31.70	-44.985954	-42.707150	-45.244146
31.80	-44.020528	-43.110379	-45.579194
31.90	-43.668707	-44.085717	-45.333544
32.00	-43.247752	-45.065352	-45.509520
32.10	-42.445120	-47.005285	-45.427800
32.20	-40.955810	-47.886573	-45.344487
32.30	-38.510884	-48.723503	-44.919685
32.40	-38.658978	-49.003659	-45.108356
32.50	-39.821979	-48.360547	-44.613374
32.60	-42.394461	-47.745190	-45.475140
32.70	-45.665109	-45.799708	-45.452709
32.80	-47.372545	-45.691237	-45.974285
32.90	-49.410198	-45.769051	-46.096017
33.00	-49.880856	-47.305629	-45.621383
33.10	-49.787346	-48.174568	-46.019513
33.20	-48.765608	-48.496527	-46.031838
33.30	-48.457005	-47.839861	-46.555676
33.40	-47.774612	-46.250908	-46.641451
33.50	-48.432497	-44.827146	-46.853095
33.60	-48.407151	-43.488146	-46.456610
33.70	-48.193032	-43.541021	-46.574351
33.80	-47.889854	-44.486966	-46.203033
33.90	-47.294202	-45.580632	-46.417582
34.00	-46.185034	-46.097006	-46.458338
34.10	-45.081170	-45.706829	-46.346238
34.20	-43.407309	-45.278668	-46.126036
34.30	-41.808756	-44.826797	-45.208062
34.40	-41.225780	-45.392957	-45.260948
34.50	-40.955205	-46.669978	-44.907048
34.60	-42.097045	-48.085974	-44.835042
34.70	-43.027572	-48.980544	-45.317714
34.80	-44.366045	-49.024058	-45.805198
34.90	-45.448265	-48.064654	-46.438562
35.00	-45.520565	-46.655609	-47.084774
35.10	-45.590396	-44.372654	-47.666335
35.20	-45.536854	-42.818134	-47.990961
35.30	-46.114446	-41.535008	-47.826177
35.40	-46.570242	-41.119178	-46.847465
35.50	-46.837838	-40.777164	-45.609167
35.60	-46.993761	-41.312197	-45.023122
35.70	-47.216595	-41.662212	-45.169246
35.80	-47.036186	-42.263691	-46.140365
35.90	-46.950875	-43.482816	-47.020736
36.00	-47.115708	-44.928829	-48.275448
36.10	-47.286502	-46.908369	-48.978532
36.20	-46.728718	-47.770004	-49.315069
36.30	-46.692791	-47.694193	-48.865489
36.40	-45.869812	-46.670573	-48.501262
36.50	-45.751813	-45.868060	-47.756206
36.60	-45.158901	-45.438793	-47.971314
36.70	-45.219347	-45.944437	-47.922127
36.80	-45.525762	-46.358136	-47.397059
36.90	-46.620373	-46.472944	-45.682813
37.00	-46.887679	-46.183385	-43.528673
37.10	-46.426324	-46.235004	-41.739215
37.20	-45.196536	-45.801532	-41.507827
37.30	-45.208609	-45.508067	-42.597870
37.40	-45.466267	-45.092968	-44.607635
37.50	-46.522373	-45.365538	-46.010634
37.60	-47.310048	-44.473867	-46.320555
37.70	-48.048486	-43.165001	-45.552228
37.80	-48.696966	-41.926440	-44.097559
37.90	-49.032845	-41.470758	-44.280484
38.00	-48.975171	-41.968485	-45.052251
38.10	-48.384052	-42.861248	-46.929055
38.20	-47.562864	-44.285644	-48.379269
38.30	-45.456213	-45.797889	-48.534210
38.40	-43.791173	-46.500431	-47.968624
38.50	-42.789229	-47.480130	-47.977171
38.60	-42.493918	-48.042043	-48.392084
38.70	-43.186521	-48.694535	-49.462741
38.80	-43.892021	-48.830287	-49.988038
38.90	-44.501955	-47.716816	-50.488032
39.00	-45.650188	-47.079918	-50.340125
39.10	-46.165216	-46.837389	-49.346848
39.20	-46.508657	-46.819827	-47.795927
39.30	-45.861848	-47.012732	-46.807624
39.40	-45.435939	-46.923941	-45.381927
39.50	-45.049299	-46.676786	-44.488071
39.60	-45.132094	-46.524430	-43.962460
39.70	-45.693173	-46.499119	-42.608044
39.80	-45.847513	-46.516923	-42.665128
39.90	-45.637376	-46.162490	-42.540370
40.00	-45.150636	-45.152537	-43.116303
40.10	-44.551596	-43.884395	-43.997252
40.20	-45.411878	-42.936993	-44.637870
40.30	-46.536766	-42.978022	-45.956316
40.40	-47.476714	-43.522927	-46.893756
40.50	-47.666201	-43.840647	-47.850541
40.60	-47.054321	-43.000806	-48.364025
40.70	-46.342916	-42.315568	-48.033704
40.80	-45.480813	-41.525933	-47.266632
40.90	-45.699636	-41.827026	-46.901560
41.00	-45.649978	-43.455918	-46.540076
41.10	-46.618930	-44.434270	-46.530568
41.20	-46.480338	-46.547290	-47.253572
41.30	-45.715145	-48.222013	-47.557372
41.40	-45.405922	-49.462454	-47.964365
41.50	-45.495235	-50.336010	-48.466236
41.60	-46.762021	-50.424430	-48.537206
41.70	-47.606816	-49.858960	-48.291889
41.80	-47.741738	-48.375961	-47.162242
41.90	-46.286043	-46.637654	-44.832613
42.00	-45.699752	-44.387577	-42.627520
42.10	-45.030464	-43.400881	-40.316043
42.20	-45.444187	-43.416914	-40.936417
42.30	-45.901248	-43.601858	-41.850005
42.40	-46.466113	-44.412302	-44.118284
42.50	-46.034755	-45.123089	-45.335477
42.60	-45.894351	-45.418452	-47.017021
42.70	-45.612682	-45.975765	-48.283224
42.80	-45.555174	-46.017925	-49.431228
42.90	-45.208963	-45.605945	-49.759528
43.00	-44.858089	-44.612474	-49.975876
43.10	-44.409962	-43.708801	-49.600135
43.20	-44.312082	-42.507668	-49.276578
43.30	-44.919947	-42.448702	-49.291859
43.40	-45.465860	-42.650231	-48.972113
43.50	-45.740142	-43.389240	-48.216169
43.60	-44.923302	-43.631629	-47.619943
43.70	-44.691061	-44.312922	-46.771091
43.80	-44.580261	-44.197126	-46.014343
43.90	-45.703552	-44.499651	-45.222228
44.00	-46.375089	-45.308279	-45.661467
44.10	-46.203540	-45.818918	-46.582371
44.20	-45.159807	-46.967864	-47.787848
44.30	-44.401281	-48.352836	-47.634475
44.40	-44.384894	-48.781948	-46.420039
44.50	-44.406712	-49.172706	-45.051705
44.60	-45.285662	-49.167755	-44.432777
44.70	-45.431785	-48.624588	-45.190627
44.80	-45.607388	-47.445514	-45.932119
44.90	-46.398226	-45.874715	-46.821447
45.00	-46.693912	-45.117114	-46.935678
45.10	-47.024345	-45.016992	-47.767877
45.20	-47.147108	-45.161928	-48.020495
45.30	-47.693494	-44.591270	-47.191362
45.40	-47.540173	-43.737164	-46.228688
45.50	-46.928919	-43.272519	-45.109101
45.60	-46.793005	-43.586933	-45.374529
45.70	-45.611044	-44.605918	-45.426721
45.80	-46.528732	-45.521394	-45.523483
45.90	-46.907958	-45.444554	-45.960273
46.00	-47.252920	-44.385253	-46.289075
46.10	-47.029050	-44.312643	-47.199913
46.20	-46.329395	-44.101076	-48.037291
46.30	-45.167393	-44.378517	-48.540034
46.40	-43.475528	-43.550752	-48.182424
46.50	-42.281456	-43.502838	-47.281659
46.60	-41.592316	-43.804228	-46.569775
46.70	-40.701155	-45.560079	-46.516981
46.80	-41.744193	-46.751169	-47.530165
46.90	-43.538679	-47.953660	-48.449603
47.00	-46.057824	-48.483658	-49.129876
47.10	-49.066586	-49.114847	-48.563345
47.20	-50.944333	-48.973848	-47.893958
47.30	-51.835315	-48.411500	-47.055689
47.40	-51.734562	-47.069128	-47.182022
47.50	-50.872103	-46.536146	-47.328199
47.60	-49.167822	-45.788688	-46.803163
47.70	-47.818188	-46.337948	-45.368950
47.80	-46.424732	-46.217029	-43.840642
47.90	-45.206886	-45.378064	-42.747978
48.00	-44.993808	-43.913807	-42.658457
48.10	-44.252400	-43.323887	-42.967039
48.20	-44.823405	-43.401896	-44.209719
48.30	-45.140522	-44.460343	-45.217461
48.40	-45.464681	-45.010662	-46.245264
48.50	-45.340751	-45.203543	-47.006563
48.60	-45.299713	-46.070712	-47.028337
48.70	-44.316597	-47.519883	-46.088615
48.80	-44.250290	-49.007586	-46.261004
48.90	-44.350051	-50.005325	-45.902967
49.00	-45.798981	-49.432890	-47.550357
49.10	-47.191850	-49.115213	-47.833226
49.20	-47.710225	-48.839838	-48.184019
49.30	-46.860200	-49.013955	-48.387573
49.40	-46.018234	-49.232111	-48.379143
49.50	-45.327842	-48.444772	-48.709867
49.60	-45.227800	-47.473403	-48.343825
49.70	-45.302554	-45.856605	-47.945024
49.80	-44.878280	-44.805733	-46.775304
49.90	-44.109558	-44.050903	-46.301060
50.00	-43.980245	-43.630576	-45.816675
50.10	-44.761833	-43.230240	-46.022499
50.20	-45.575762	-42.729549	-46.387931
50.30	-46.169188	-43.542125	-47.004870
50.40	-45.771487	-44.152708	-47.723689
50.50	-45.331678	-45.022846	-47.698013
50.60	-45.154192	-45.416442	-46.678686
50.70	-44.851424	-45.654266	-45.543508
50.80	-45.810078	-46.580938	-43.954329
50.90	-46.335013	-47.232792	-44.083449
51.00	-47.402312	-48.304321	-44.065462
51.10	-48.120279	-49.423703	-44.592871
51.20	-48.147748	-50.247339	-45.581360
51.30	-48.649877	-50.574116	-46.518372
51.40	-48.441007	-50.743334	-48.279619
51.50	-48.252149	-50.361650	-49.493110
51.60	-47.256943	-49.839756	-50.241602
51.70	-45.920606	-48.768645	-49.868946
51.80	-43.993454	-48.002848	-48.226803
51.90	-41.789831	-46.392639	-45.931585
52.00	-40.687064	-46.043824	-44.698544
52.10	-40.278048	-44.524411	-43.985308
52.20	-40.888984	-44.093627	-44.056899
52.30	-42.447666	-44.228700	-43.738792
52.40	-42.598770	-44.636346	-43.614391
52.50	-43.591647	-45.207137	-43.783250
52.60	-44.126158	-46.052837	-45.761030
52.70	-45.922503	-46.866110	-47.425115
52.80	-47.522773	-47.871654	-48.608956
52.90	-49.366813	-48.459173	-48.432105
53.00	-50.680564	-48.959514	-47.053884
53.10	-51.485478	-48.734196	-45.433227
53.20	-51.786098	-48.264258	-44.460375
53.30	-51.255290	-46.887386	-44.445377
53.40	-50.762802	-45.745500	-44.472444
53.50	-49.990334	-44.614372	-44.221263
53.60	-49.419174	-44.333277	-43.947599
53.70	-49.115590	-45.426541	-44.473736
53.80	-48.929735	-45.797053	-45.427251
53.90	-47.815578	-46.105910	-46.795652
54.00	-46.793426	-45.324892	-47.482625
54.10	-45.386705	-45.220379	-48.728196
54.20	-44.186291	-46.148839	-49.433775
54.30	-44.208846	-47.396168	-49.919564
54.40	-44.319973	-48.763406	-49.788972
54.50	-44.415403	-48.752357	-49.530251
54.60	-42.597000	-48.494190	-49.099462
54.70	-40.048347	-47.705178	-48.428325
54.80	-39.582892	-47.549441	-48.824609
54.90	-40.095758	-47.150164	-49.118136
55.00	-42.595995	-46.990863	-49.947666
55.10	-44.703210	-46.067131	-49.951380
55.20	-46.960700	-46.448041	-48.558045
55.30	-48.305565	-46.463341	-46.512333
55.40	-49.565259	-46.888861	-44.369822