# TStellate_CS Optimisation
# Monday 5 November  21:23:13 EST 2012
 
#param.w.x[lsr][ts] = 0.0035	[1e-07,0.3]
#param.w.x[hsr][ts] = 0.0032	[1e-07,0.3]
#param.w.x[ds][ts] = 1.2801e-05	[1e-07,0.3]
#param.w.x[tv][ts] = 1.1606e-05	[1e-07,0.3]
#param.w.x[glg][ts] = 3.3936e-05	[1e-07,0.3]
#param.ts_gleak = 0.000473539	[5e-05,0.005]
#param.ts_erev = -67	[0.03,0.08]
# final error=7.950485
# Time	Error Vec	 Reference Vec (mV)
-20.00	-45.157895	-65.000000
-19.90	-45.157895	-65.079328
-19.80	-45.157895	-65.147659
-19.70	-45.157895	-65.207406
-19.60	-45.157895	-65.260362
-19.50	-45.157895	-65.305624
-19.40	-45.157895	-65.338812
-19.30	-45.157895	-65.356259
-19.20	-45.157895	-65.359341
-19.10	-45.157895	-65.349798
-19.00	-45.157895	-65.322959
-18.90	-45.157895	-65.275767
-18.80	-45.157895	-65.210982
-18.70	-45.157895	-65.134078
-18.60	-45.157895	-65.048409
-18.50	-45.157895	-64.950093
-18.40	-45.157895	-64.836699
-18.30	-45.157895	-64.714852
-18.20	-45.157895	-64.593277
-18.10	-45.157895	-64.473963
-18.00	-45.157895	-64.348940
-17.90	-45.157895	-64.210851
-17.80	-45.157895	-64.070308
-17.70	-45.157895	-63.941859
-17.60	-45.157895	-63.823939
-17.50	-45.157895	-63.705327
-17.40	-45.157895	-63.587095
-17.30	-45.157895	-63.476389
-17.20	-45.157895	-63.369998
-17.10	-45.157895	-63.261426
-17.00	-45.157895	-63.150269
-16.90	-45.157895	-63.032562
-16.80	-45.157895	-62.904188
-16.70	-45.157895	-62.775536
-16.60	-45.157895	-62.656680
-16.50	-45.157895	-62.550721
-16.40	-45.157895	-62.458399
-16.30	-45.157895	-62.383492
-16.20	-45.157895	-62.326923
-16.10	-45.157895	-62.283034
-16.00	-45.157895	-62.245793
-15.90	-45.157895	-62.208406
-15.80	-45.157895	-62.156584
-15.70	-45.157895	-62.056217
-15.60	-45.157895	-61.759379
-15.50	-45.157895	-61.659840
-15.40	-45.157895	-61.670832
-15.30	-45.157895	-61.944343
-15.20	-45.157895	-62.227453
-15.10	-45.157895	-62.426673
-15.00	-45.157895	-62.485920
-14.90	-45.157895	-62.483188
-14.80	-45.157895	-62.455724
-14.70	-45.157895	-62.417505
-14.60	-45.157895	-62.374667
-14.50	-45.157895	-62.329725
-14.40	-45.157895	-62.281411
-14.30	-45.157895	-62.227772
-14.20	-45.157895	-62.168976
-14.10	-45.157895	-62.105744
-14.00	-45.157895	-62.036863
-13.90	-45.157895	-61.960555
-13.80	-45.157895	-61.882508
-13.70	-45.157895	-61.809371
-13.60	-45.157895	-61.728712
-13.50	-45.157895	-61.632655
-13.40	-45.157895	-61.532260
-13.30	-45.157895	-61.442035
-13.20	-45.157895	-61.369372
-13.10	-45.157895	-61.308472
-13.00	-45.157895	-61.252549
-12.90	-45.157895	-61.193244
-12.80	-45.157895	-61.130469
-12.70	-45.157895	-61.075388
-12.60	-45.157895	-61.033593
-12.50	-45.157895	-61.006782
-12.40	-45.157895	-60.992570
-12.30	-45.157895	-60.985181
-12.20	-45.157895	-60.983576
-12.10	-45.157895	-60.990026
-12.00	-45.157895	-60.997908
-11.90	-45.157895	-60.998946
-11.80	-45.157895	-60.991269
-11.70	-45.157895	-60.974229
-11.60	-45.157895	-60.952140
-11.50	-45.157895	-60.917998
-11.40	-45.157895	-60.839523
-11.30	-45.157895	-60.622162
-11.20	-45.157895	-60.520544
-11.10	-45.157895	-60.529279
-11.00	-45.157895	-60.842622
-10.90	-45.157895	-61.100815
-10.80	-45.157895	-61.266313
-10.70	-45.157895	-61.351350
-10.60	-45.157895	-61.399798
-10.50	-45.157895	-61.425946
-10.40	-45.157895	-61.435451
-10.30	-45.157895	-61.439932
-10.20	-45.157895	-61.447192
-10.10	-45.157895	-61.459234
-10.00	-45.157895	-61.474754
-9.90	-45.157895	-61.494114
-9.80	-45.157895	-61.506888
-9.70	-45.157895	-61.510839
-9.60	-45.157895	-61.517236
-9.50	-45.157895	-61.522345
-9.40	-45.157895	-61.521507
-9.30	-45.157895	-61.513353
-9.20	-45.157895	-61.499082
-9.10	-45.157895	-61.485600
-9.00	-45.157895	-61.468013
-8.90	-45.157895	-61.435331
-8.80	-45.157895	-61.368646
-8.70	-45.157895	-61.199448
-8.60	-45.157895	-60.904960
-8.50	-45.157895	-60.900072
-8.40	-45.157895	-61.043455
-8.30	-45.157895	-61.316345
-8.20	-45.157895	-61.535524
-8.10	-45.157895	-61.618382
-8.00	-45.157895	-61.603646
-7.90	-45.157895	-61.550098
-7.80	-45.157895	-61.477762
-7.70	-45.157895	-61.392955
-7.60	-45.157895	-61.300098
-7.50	-45.157895	-61.208230
-7.40	-45.157895	-61.125789
-7.30	-45.157895	-61.052166
-7.20	-45.157895	-60.982563
-7.10	-45.157895	-60.917764
-7.00	-45.157895	-60.865891
-6.90	-45.157895	-60.829273
-6.80	-45.157895	-60.801731
-6.70	-45.157895	-60.775180
-6.60	-45.157895	-60.741451
-6.50	-45.157895	-60.683597
-6.40	-45.157895	-60.584032
-6.30	-45.157895	-60.399392
-6.20	-45.158534	-59.994478
-6.10	-45.161503	-59.817835
-6.00	-45.164472	-59.615861
-5.90	-45.167440	-59.922296
-5.80	-45.170409	-60.341251
-5.70	-45.173377	-60.735250
-5.60	-45.176346	-60.969446
-5.50	-45.179314	-61.075254
-5.40	-45.182283	-61.111933
-5.30	-45.185251	-61.114061
-5.20	-45.188220	-61.092386
-5.10	-45.191188	-61.060410
-5.00	-45.194157	-61.020087
-4.90	-45.197125	-60.961363
-4.80	-45.200094	-60.879656
-4.70	-45.203062	-60.774958
-4.60	-45.206031	-60.647113
-4.50	-45.209000	-60.482119
-4.40	-45.211968	-60.206429
-4.30	-45.214937	-59.892382
-4.20	-45.217905	-59.819579
-4.10	-45.220874	-59.974670
-4.00	-45.223842	-60.201964
-3.90	-45.226811	-60.362300
-3.80	-45.229779	-60.395607
-3.70	-45.232748	-60.356327
-3.60	-45.235716	-60.294873
-3.50	-45.238685	-60.234053
-3.40	-45.241653	-60.176995
-3.30	-45.244622	-60.127408
-3.20	-45.247591	-60.084572
-3.10	-45.250559	-60.043702
-3.00	-45.253528	-59.993777
-2.90	-45.256496	-59.912530
-2.80	-45.259465	-59.778587
-2.70	-45.262433	-59.542242
-2.60	-45.251405	-59.370601
-2.50	-45.235857	-59.308367
-2.40	-45.220309	-59.500647
-2.30	-45.204761	-59.658309
-2.20	-45.189212	-59.764726
-2.10	-45.173664	-59.821805
-2.00	-45.158116	-59.846521
-1.90	-45.142568	-59.853676
-1.80	-45.127019	-59.840767
-1.70	-45.111471	-59.812388
-1.60	-45.095923	-59.779481
-1.50	-45.080375	-59.744852
-1.40	-45.064826	-59.716250
-1.30	-45.049278	-59.691096
-1.20	-45.033730	-59.659548
-1.10	-45.018182	-59.624663
-1.00	-45.002633	-59.590143
-0.90	-44.987085	-59.561442
-0.80	-44.971537	-59.544558
-0.70	-44.955989	-59.537432
-0.60	-44.940440	-59.539531
-0.50	-44.924892	-59.544405
-0.40	-44.909344	-59.547393
-0.30	-44.893795	-59.553725
-0.20	-44.878247	-59.563362
-0.10	-44.862699	-59.571791
0.00	-44.847151	-59.577195
0.10	-44.803796	-59.576995
0.20	-44.747084	-59.571836
0.30	-44.690371	-59.562756
0.40	-44.633659	-59.548876
0.50	-44.576947	-59.533724
0.60	-44.520234	-59.518737
0.70	-44.463522	-59.497989
0.80	-44.406809	-59.466996
0.90	-44.350097	-59.431026
1.00	-44.293385	-59.399000
1.10	-44.236672	-59.376567
1.20	-44.179960	-59.358246
1.30	-44.123248	-59.341906
1.40	-44.066535	-59.320074
1.50	-44.009823	-59.280768
1.60	-43.953110	-59.214438
1.70	-43.896398	-59.085758
1.80	-43.839686	-58.788765
1.90	-43.782973	-58.643532
2.00	-43.726261	-58.538725
2.10	-43.582175	-58.700994
2.20	-43.187509	-58.685063
2.30	-42.792842	-58.582681
2.40	-42.398175	-58.580095
2.50	-42.003509	-58.709692
2.60	-41.608842	-58.656025
2.70	-36.508174	-58.756127
2.80	-34.956208	-58.806484
2.90	-33.496730	-59.090499
3.00	-32.317368	-59.323760
3.10	-31.138006	-59.448850
3.20	-29.958644	-59.462619
3.30	-28.779282	-59.428488
3.40	-27.599920	-59.379542
3.50	-26.420558	-59.327572
3.60	-25.241196	-59.272197
3.70	-25.222456	-59.214405
3.80	-27.853567	-59.145821
3.90	-30.484678	-59.047625
4.00	-33.115789	-58.850157
4.10	-45.852146	-58.565695
4.20	-46.547121	-58.540925
4.30	-47.242096	-58.637018
4.40	-47.937071	-58.805142
4.50	-48.632046	-58.747668
4.60	-49.327021	-58.543259
4.70	-49.982855	-58.223154
4.80	-49.441156	-58.422481
4.90	-48.899456	-58.683054
5.00	-48.357757	-59.156151
5.10	-47.816058	-59.485321
5.20	-47.274358	-59.677148
5.30	-46.743329	-59.746067
5.40	-46.219692	-59.758334
5.50	-45.696056	-59.747667
5.60	-45.172420	-59.728331
5.70	-44.648783	-59.701009
5.80	-44.125147	-59.667787
5.90	-43.601510	-59.630912
6.00	-43.077874	-59.595254
6.10	-42.554238	-59.564441
6.20	-41.463256	-59.527240
6.30	-39.897911	-59.482639
6.40	-38.332566	-59.440374
6.50	-36.767222	-59.392010
6.60	-35.201877	-59.323135
6.70	-33.636533	-59.230980
6.80	-32.588831	-59.104323
6.90	-33.339493	-58.859075
7.00	-34.090156	-58.607356
7.10	-34.840819	-58.600839
7.20	-35.591482	-58.793419
7.30	-36.342145	-59.065017
7.40	-37.091100	-59.303119
7.50	-37.809853	-59.420397
7.60	-38.528606	-59.474223
7.70	-39.247359	-59.507313
7.80	-39.966112	-59.532896
7.90	-40.684865	-59.556139
8.00	-41.403618	-59.584444
8.10	-42.122371	-59.617472
8.20	-42.841124	-59.652881
8.30	-43.559877	-59.694657
8.40	-44.278630	-59.738731
8.50	-44.949430	-59.772657
8.60	-45.446213	-59.796806
8.70	-45.942996	-59.815718
8.80	-46.417953	-59.831580
8.90	-46.335731	-59.849864
9.00	-46.253509	-59.869078
9.10	-46.171287	-59.884531
9.20	-46.089064	-59.895667
9.30	-46.006842	-59.904139
9.40	-45.924620	-59.907868
9.50	-45.842398	-59.906791
9.60	-45.760175	-59.906509
9.70	-45.677953	-59.913485
9.80	-45.595731	-59.927985
9.90	-44.578258	-59.941689
10.00	-43.320913	-59.943367
10.10	-42.063568	-59.920314
10.20	-40.806223	-59.869695
10.30	-39.548878	-59.801739
10.40	-38.291532	-59.720243
10.50	-37.358019	-59.626291
10.60	-36.522254	-59.533325
10.70	-35.686489	-59.451397
10.80	-34.850724	-59.380941
10.90	-34.014960	-59.320987
11.00	-33.383307	-59.267468
11.10	-34.579266	-59.214652
11.20	-35.775226	-59.152109
11.30	-36.971186	-59.060116
11.40	-38.167145	-58.885130
11.50	-38.791337	-58.518799
11.60	-39.170113	-58.495836
11.70	-39.548888	-58.514860
11.80	-39.927664	-58.751750
11.90	-40.306439	-58.973582
12.00	-40.685215	-59.104533
12.10	-41.063990	-59.046272
12.20	-41.442766	-58.794581
12.30	-39.043181	-58.823644
12.40	-40.135668	-58.913753
12.50	-41.228154	-59.240257
12.60	-42.320641	-59.493777
12.70	-43.413127	-59.641000
12.80	-44.505614	-59.707032
12.90	-45.598100	-59.739646
13.00	-46.690587	-59.754389
13.10	-47.300438	-59.759487
13.20	-47.600640	-59.766122
13.30	-47.300893	-59.778451
13.40	-47.001146	-59.787930
13.50	-46.701399	-59.795922
13.60	-46.401652	-59.811791
13.70	-46.101905	-59.828482
13.80	-45.802159	-59.835943
13.90	-45.142615	-59.839089
14.00	-43.433749	-59.846713
14.10	-41.724883	-59.858524
14.20	-40.016017	-59.866183
14.30	-38.307151	-59.872035
14.40	-38.646146	-59.879237
14.50	-39.107873	-59.879728
14.60	-39.569600	-59.878963
14.70	-40.031327	-59.884972
14.80	-40.280463	-59.893728
14.90	-39.378893	-59.902591
15.00	-38.477324	-59.916083
15.10	-37.575754	-59.928866
15.20	-36.674185	-59.929830
15.30	-35.772615	-59.924575
15.40	-35.614174	-59.917903
15.50	-36.421251	-59.912277
15.60	-37.228329	-59.916075
15.70	-38.035406	-59.924118
15.80	-38.842484	-59.932898
15.90	-39.649561	-59.948102
16.00	-40.340726	-59.957313
16.10	-40.767688	-59.942935
16.20	-41.194651	-59.897641
16.30	-41.621613	-59.824540
16.40	-42.048576	-59.725134
16.50	-42.475538	-59.540611
16.60	-42.902501	-59.156043
16.70	-43.329463	-59.096556
16.80	-43.756426	-59.060406
16.90	-44.183389	-59.227772
17.00	-44.370065	-59.272556
17.10	-44.448736	-59.259386
17.20	-44.527407	-59.327729
17.30	-44.606078	-59.568028
17.40	-44.684749	-59.856661
17.50	-44.763420	-60.060371
17.60	-44.842091	-60.171689
17.70	-44.133249	-60.230336
17.80	-43.424267	-60.267482
17.90	-42.715285	-60.302168
18.00	-42.006303	-60.339004
18.10	-41.297321	-60.371139
18.20	-40.588339	-60.394976
18.30	-39.879357	-60.411578
18.40	-39.717723	-60.415529
18.50	-39.958537	-60.407592
18.60	-40.199351	-60.392810
18.70	-40.440164	-60.372827
18.80	-40.680978	-60.354968
18.90	-40.921791	-60.348370
19.00	-41.148508	-60.349171
19.10	-40.668587	-60.349502
19.20	-40.188666	-60.348601
19.30	-39.708745	-60.351804
19.40	-39.228824	-60.361686
19.50	-38.748903	-60.371465
19.60	-38.268982	-60.378244
19.70	-37.789062	-60.384975
19.80	-37.309141	-60.392690
19.90	-36.862763	-60.403522
20.00	-37.632149	-60.416464
20.10	-38.401535	-60.430528
20.20	-39.170922	-60.441553
20.30	-39.940308	-60.445822
20.40	-40.709694	-60.442079
20.50	-41.479080	-60.426815
20.60	-41.890735	-60.402334
20.70	-42.249029	-60.366239
20.80	-42.607324	-60.320038
20.90	-42.965618	-60.273388
21.00	-43.323912	-60.220918
21.10	-43.682207	-60.161445
21.20	-43.828526	-60.099301
21.30	-43.665777	-60.027109
21.40	-43.503028	-59.947533
21.50	-43.340279	-59.871453
21.60	-43.177529	-59.800916
21.70	-42.980239	-59.731174
21.80	-42.668976	-59.651835
21.90	-42.357712	-59.542495
22.00	-42.046448	-59.339000
22.10	-41.735184	-58.905239
22.20	-41.423920	-58.750622
22.30	-41.112656	-58.447350
22.40	-40.801392	-58.196208
22.50	-40.490128	-58.407516
22.60	-40.438786	-58.634160
22.70	-40.718386	-59.132118
22.80	-40.997987	-59.233701
22.90	-41.277587	-59.415462
23.00	-41.557187	-59.483332
23.10	-41.428327	-59.771090
23.20	-40.959416	-59.938991
23.30	-40.490505	-60.013609
23.40	-40.021595	-60.016600
23.50	-39.552684	-59.982227
23.60	-39.083773	-59.912241
23.70	-38.614862	-59.743195
23.80	-38.145951	-59.483877
23.90	-37.677040	-59.486315
24.00	-37.653144	-59.644342
24.10	-37.970029	-59.916538
24.20	-38.286915	-60.147342
24.30	-38.603801	-60.258382
24.40	-38.920686	-60.292813
24.50	-39.237572	-60.277754
24.60	-39.554458	-60.201426
24.70	-39.871343	-60.033994
24.80	-40.188229	-59.683079
24.90	-40.505115	-59.351330
25.00	-40.822000	-59.007927
25.10	-41.138886	-59.061262
25.20	-41.455772	-59.225598
25.30	-41.772657	-59.569478
25.40	-42.089543	-59.791990
25.50	-41.969573	-59.836898
25.60	-41.826799	-59.644591
25.70	-41.684026	-59.457629
25.80	-41.541252	-59.381917
25.90	-41.398479	-59.509996
26.00	-41.255705	-59.609024
26.10	-41.112932	-59.464371
26.20	-40.970158	-59.430561
26.30	-40.827385	-59.427078
26.40	-40.684611	-59.687927
26.50	-40.867511	-59.888073
26.60	-41.242866	-59.993758
26.70	-41.618220	-60.009009
26.80	-41.993575	-59.981873
26.90	-42.368930	-59.937717
27.00	-42.744285	-59.877274
27.10	-42.848158	-59.794900
27.20	-41.702781	-59.672087
27.30	-40.557405	-59.457092
27.40	-39.412028	-58.968717
27.50	-38.565501	-58.526412
27.60	-38.738348	-58.434734
27.70	-38.911195	-58.680947
27.80	-39.084041	-59.154859
27.90	-39.256888	-59.442312
28.00	-39.429735	-59.556976
28.10	-39.602582	-59.562298
28.20	-39.775428	-59.504744
28.30	-39.948275	-59.410990
28.40	-40.121122	-59.297928
28.50	-40.293968	-59.162014
28.60	-40.466815	-58.963873
28.70	-40.567505	-58.509637
28.80	-40.630317	-58.157174
28.90	-40.693129	-58.127360
29.00	-40.755940	-58.391713
29.10	-40.818752	-58.899698
29.20	-40.881564	-59.087729
29.30	-40.944375	-59.197437
29.40	-41.007187	-59.287606
29.50	-40.729667	-59.602154
29.60	-39.561595	-59.876142
29.70	-38.940025	-60.055870
29.80	-39.631313	-60.148790
29.90	-40.322601	-60.181473
30.00	-41.013888	-60.170190
30.10	-41.705176	-60.133193
30.20	-42.396464	-60.082999
30.30	-43.087752	-60.025820
30.40	-43.779040	-59.969146
30.50	-43.926767	-59.917934
30.60	-43.588765	-59.871174
30.70	-43.250763	-59.829998
30.80	-42.912762	-59.801785
30.90	-42.574760	-59.795008
31.00	-42.221757	-59.810329
31.10	-41.819599	-59.846396
31.20	-41.417442	-59.902692
31.30	-41.015284	-59.975394
31.40	-40.613126	-60.059699
31.50	-40.210968	-60.142164
31.60	-39.808810	-60.210322
31.70	-39.406652	-60.258820
31.80	-39.004494	-60.289025
31.90	-38.830357	-60.304364
32.00	-39.109957	-60.300914
32.10	-39.389558	-60.279991
32.20	-39.669158	-60.246191
32.30	-39.948759	-60.206195
32.40	-39.931509	-60.159581
32.50	-39.536842	-60.106456
32.60	-39.142175	-60.052170
32.70	-38.747509	-59.991434
32.80	-38.352842	-59.891127
32.90	-38.032947	-59.655464
33.00	-38.343844	-59.559828
33.10	-38.654741	-59.559596
33.20	-38.965639	-59.852891
33.30	-39.276536	-60.086530
33.40	-39.587433	-60.233344
33.50	-39.898330	-60.302257
33.60	-40.209227	-60.330551
33.70	-40.520124	-60.342173
33.80	-40.894196	-60.347602
33.90	-41.269551	-60.345737
34.00	-41.644906	-60.336372
34.10	-42.020260	-60.314704
34.20	-42.395615	-60.260440
34.30	-42.770970	-60.135128
34.40	-42.840090	-59.849674
34.50	-42.637697	-59.662841
34.60	-42.435304	-59.535877
34.70	-42.232910	-59.624136
34.80	-42.030517	-59.595198
34.90	-41.796083	-59.387004
35.00	-41.496336	-58.982885
35.10	-41.196589	-58.413772
35.20	-40.896842	-57.692462
35.30	-40.597095	-56.790304
35.40	-40.297348	-55.664027
35.50	-39.997602	-54.212890
35.60	-39.868146	-52.038519
35.70	-40.125538	-49.668203
35.80	-40.382929	-46.567994
35.90	-40.640320	-43.221729
36.00	-40.897712	-39.516663
36.10	-40.984669	-36.718309
36.20	-40.813958	-35.048953
36.30	-40.643248	-34.631867
36.40	-40.472537	-35.775865
36.50	-40.301827	-39.384692
36.60	-40.131116	-43.239614
36.70	-39.960405	-47.881689
36.80	-39.789695	-51.887711
36.90	-39.618984	-54.804867
37.00	-39.986280	-56.669068
37.10	-40.518415	-57.535706
37.20	-41.050550	-57.659196
37.30	-41.332766	-57.276256
37.40	-41.448689	-56.650417
37.50	-41.564612	-55.916013
37.60	-41.680536	-55.138711
37.70	-41.796459	-54.341878
37.80	-41.912383	-53.511477
37.90	-42.028306	-52.572075
38.00	-42.144230	-51.374775
38.10	-42.260153	-50.191008
38.20	-42.376077	-49.093494
38.30	-42.015762	-48.133088
38.40	-41.353544	-46.769639
38.50	-40.691326	-45.815882
38.60	-40.029108	-44.580377
38.70	-39.366890	-43.506274
38.80	-38.704672	-41.244167
38.90	-38.042454	-39.538327
39.00	-37.380237	-38.528912
39.10	-36.718019	-38.788014
39.20	-36.452007	-39.393275
39.30	-36.798967	-40.624931
39.40	-37.145926	-42.195000
39.50	-37.492886	-44.674478
39.60	-37.839846	-47.294695
39.70	-38.186805	-50.297245
39.80	-38.533765	-52.861122
39.90	-38.880725	-54.697807
40.00	-39.227685	-55.407619
40.10	-39.574644	-55.380720
40.20	-39.984250	-55.174124
40.30	-40.422768	-54.911070
40.40	-40.861287	-54.637485
40.50	-41.299805	-54.184467
40.60	-41.738324	-53.496172
40.70	-42.176842	-52.751908
40.80	-42.615361	-52.046482
40.90	-43.053879	-51.339239
41.00	-43.492398	-50.341495
41.10	-43.830967	-49.425540
41.20	-43.058029	-48.196917
41.30	-42.285091	-47.949741
41.40	-41.512154	-47.359480
41.50	-40.739216	-47.163942
41.60	-39.966278	-46.263425
41.70	-39.193341	-44.669496
41.80	-38.420403	-43.485507
41.90	-38.337726	-42.911801
42.00	-38.730212	-43.110100
42.10	-39.122698	-43.950705
42.20	-39.515185	-44.033901
42.30	-39.907671	-43.854146
42.40	-40.000000	-44.070159
42.50	-40.000000	-43.936225
42.60	-40.000000	-45.109823
42.70	-40.000000	-46.146638
42.80	-40.000000	-47.768794
42.90	-40.000000	-49.293927
43.00	-40.000000	-50.924231
43.10	-40.000000	-52.263371
43.20	-40.000000	-53.329079
43.30	-40.000000	-53.687170
43.40	-40.000000	-53.815990
43.50	-40.000000	-53.597389
43.60	-40.467192	-53.381596
43.70	-40.963975	-53.127872
43.80	-41.460758	-52.606299
43.90	-41.317736	-52.200583
44.00	-40.974979	-51.623007
44.10	-40.632223	-51.176012
44.20	-40.289466	-50.878296
44.30	-39.946710	-50.278777
44.40	-39.603953	-49.612479
44.50	-39.261197	-48.451250
44.60	-39.599923	-48.249099
44.70	-40.232647	-48.083346
44.80	-40.865370	-48.260392
44.90	-41.498093	-48.313050
45.00	-42.130816	-48.267397
45.10	-42.763539	-48.350991
45.20	-43.396262	-48.456355
45.30	-44.028985	-48.196312
45.40	-43.444144	-47.517620
45.50	-42.692398	-46.585850
45.60	-41.940652	-45.889544
45.70	-41.188906	-45.380744
45.80	-40.437160	-45.296877
45.90	-39.881800	-45.607981
46.00	-39.835338	-45.969719
46.10	-39.788876	-47.133408
46.20	-39.742414	-47.404952
46.30	-39.695953	-48.048444
46.40	-39.649491	-48.407992
46.50	-39.603029	-49.186327
46.60	-39.534449	-49.950585
46.70	-39.442070	-50.378868
46.80	-39.349690	-50.798513
46.90	-39.257310	-50.905859
47.00	-39.164931	-51.192576
47.10	-39.072551	-51.499256
47.20	-38.980171	-51.728107
47.30	-39.145701	-51.951762
47.40	-39.453233	-51.731689
47.50	-39.760766	-51.555288
47.60	-40.068298	-50.976178
47.70	-40.375830	-50.474407
47.80	-40.683363	-49.524515
47.90	-40.962264	-48.518953
48.00	-41.067509	-48.380800
48.10	-41.172753	-48.670106
48.20	-41.277998	-49.430525
48.30	-41.383242	-50.110439
48.40	-41.551029	-49.866097
48.50	-42.100952	-49.102695
48.60	-42.650874	-48.182535
48.70	-43.200797	-47.415051
48.80	-43.750720	-47.246246
48.90	-44.300642	-47.520066
49.00	-44.850565	-47.984137
49.10	-44.688529	-48.783161
49.20	-44.374391	-49.046655
49.30	-44.060253	-49.148652
49.40	-43.746116	-48.477504
49.50	-43.431978	-48.092554
49.60	-43.117840	-47.454899
49.70	-42.803702	-47.591919
49.80	-42.489565	-47.592927
49.90	-42.175427	-48.044298
50.00	-41.861289	-48.059853
50.10	-41.547152	-47.829351
50.20	-41.233014	-47.741020
50.30	-40.918876	-47.967943
50.40	-40.604739	-49.020548
50.50	-40.979335	-49.754576
50.60	-41.583074	-50.692629
50.70	-42.186814	-50.687572
50.80	-42.790553	-51.019941
50.90	-43.383775	-51.065972
51.00	-43.742069	-51.610170
51.10	-44.100363	-51.935788
51.20	-44.458658	-52.030987
51.30	-44.516222	-51.385385
51.40	-44.503779	-50.257090
51.50	-44.491335	-49.358579
51.60	-44.478892	-48.633296
51.70	-44.466448	-48.471911
51.80	-44.454004	-48.599140
51.90	-44.441561	-48.777414
52.00	-44.429117	-48.905887
52.10	-44.416674	-48.933777
52.20	-44.404230	-48.721307
52.30	-44.391787	-48.916072
52.40	-44.379343	-49.067759
52.50	-44.366900	-49.171840
52.60	-44.354456	-49.380034
52.70	-44.342013	-49.030682
52.80	-44.329569	-49.119158
52.90	-44.317126	-49.241003
53.00	-44.365582	-49.478738
53.10	-44.421365	-49.177019
53.20	-44.477148	-48.383744
53.30	-44.532932	-47.272915
53.40	-44.588715	-46.699915
53.50	-44.644498	-46.502844
53.60	-44.700281	-47.134352
53.70	-44.756065	-47.526969
53.80	-44.811848	-48.403312
53.90	-44.867631	-48.585814
54.00	-44.923415	-48.765306
54.10	-44.979198	-48.524419
54.20	-45.034981	-47.729638
54.30	-45.090764	-47.519349
54.40	-45.146548	-47.553361
54.50	-45.182813	-48.663976
54.60	-45.214094	-49.653365
54.70	-45.245376	-50.814938
54.80	-45.276657	-51.657838
54.90	-45.307939	-52.302487
55.00	-45.339220	-52.522430
55.10	-45.370501	-52.112770
55.20	-45.401783	-51.830656
55.30	-45.433064	-51.345925
55.40	-45.464345	-50.992690
55.50	-45.495627	-50.138180
55.60	-45.526908	-48.657797
55.70	-45.558190	-47.149707
55.80	-45.589471	-46.550474
55.90	-45.620752	-46.626773
56.00	-45.652034	-46.789965
56.10	-45.683315	-46.689039
56.20	-45.714596	-46.509608
56.30	-45.745878	-47.032862
56.40	-45.777159	-48.239692
56.50	-45.797441	-49.290180
56.60	-45.810582	-49.744309
56.70	-45.823723	-49.189459
56.80	-45.836864	-48.077177
56.90	-45.850005	-47.526989
57.00	-45.863146	-47.469363
57.10	-45.876287	-48.154427
57.20	-45.889428	-48.887424
57.30	-45.902569	-49.643478
57.40	-45.915710	-50.121463
57.50	-45.928851	-49.766840
57.60	-45.941992	-49.515289
57.70	-45.955133	-48.713242
57.80	-45.968274	-48.687502
57.90	-45.981415	-48.306663
58.00	-45.994556	-48.836767
58.10	-46.007697	-49.092510
58.20	-46.020838	-50.242734
58.30	-46.033979	-50.786986
58.40	-46.047120	-51.555172
58.50	-46.060261	-51.497879
58.60	-46.073401	-51.207509
58.70	-46.086542	-50.988477
58.80	-46.099683	-50.769730
58.90	-46.112824	-50.846887
59.00	-46.125965	-50.775340
59.10	-46.139106	-50.075210
59.20	-46.152247	-49.591441
59.30	-46.165388	-49.390112
59.40	-46.178529	-49.659447
59.50	-46.191670	-50.011579
59.60	-46.204811	-49.320029
59.70	-46.216749	-47.951776
59.80	-46.227761	-46.698329
59.90	-46.238774	-45.640074
60.00	-46.249786	-45.941143
60.10	-46.260798	-46.372648
60.20	-46.271810	-46.684157
60.30	-46.282823	-46.791020
60.40	-46.293835	-47.044375
60.50	-46.304847	-47.205887
60.60	-46.315859	-47.117045
60.70	-46.326872	-47.420229
60.80	-46.337884	-47.906012
60.90	-46.348896	-48.780351
61.00	-46.359908	-50.027957
61.10	-46.370921	-50.891918
61.20	-46.381933	-51.976231
61.30	-46.392945	-52.554441
61.40	-46.403957	-52.829592
61.50	-46.414970	-52.567448
61.60	-46.425982	-51.932794
61.70	-46.436994	-50.899850
61.80	-46.448006	-49.191520
61.90	-46.459019	-48.508543
62.00	-46.470031	-48.342100
62.10	-46.481043	-49.199125
62.20	-46.492055	-50.398726
62.30	-46.503067	-51.219319
62.40	-46.514080	-51.615644
62.50	-46.525092	-51.305857
62.60	-46.526316	-50.601060
62.70	-46.526316	-49.874649
62.80	-46.526316	-49.549397
62.90	-46.526316	-49.154165
63.00	-46.526316	-48.126378
63.10	-46.526316	-47.055556
63.20	-46.526316	-45.926724
63.30	-46.526316	-45.860845
63.40	-46.526316	-45.981364
63.50	-46.526316	-46.560095
63.60	-46.526316	-47.490752
63.70	-46.526316	-48.444068
63.80	-46.526316	-49.426390
63.90	-46.526316	-50.043328
64.00	-46.526316	-50.746265
64.10	-46.526316	-51.234377
64.20	-46.526316	-51.849641
64.30	-46.526316	-51.793132
64.40	-46.526316	-52.041120
64.50	-46.526316	-51.879111
64.60	-46.526316	-51.775358
64.70	-46.526316	-51.207452
64.80	-46.526316	-50.261183
64.90	-46.526316	-49.984130
65.00	-46.526316	-49.815794
65.10	-46.526316	-49.973360
65.20	-46.526316	-49.730410
65.30	-46.526316	-49.558258
65.40	-46.526316	-49.282427
65.50	-46.526316	-49.127420
65.60	-46.526316	-49.105045
65.70	-46.526316	-49.192239
65.80	-46.526316	-48.865669
65.90	-46.526316	-48.234940
66.00	-46.526316	-47.625049
66.10	-46.526316	-46.722726
66.20	-46.526316	-46.376850
66.30	-46.526316	-46.029201
66.40	-46.526041	-45.902662
66.50	-46.518717	-46.646719
66.60	-46.511392	-47.295553
66.70	-46.504068	-48.700146
66.80	-46.496743	-49.329983
66.90	-46.489419	-49.513908
67.00	-46.482094	-49.572233
67.10	-46.474770	-49.034961
67.20	-46.467445	-49.570511
67.30	-46.460121	-49.714708
67.40	-46.452796	-50.073220
67.50	-46.445472	-50.397146
67.60	-46.438147	-50.583116
67.70	-46.430823	-51.039948
67.80	-46.423498	-51.076403
67.90	-46.416174	-50.751951
68.00	-46.408850	-50.581989
68.10	-46.401525	-50.551713
68.20	-46.394201	-50.718690
68.30	-46.386876	-50.725346
68.40	-46.379552	-50.488339
68.50	-46.372227	-50.306132
68.60	-46.364903	-49.636305
68.70	-46.357578	-48.980866
68.80	-46.350254	-48.526037
68.90	-46.342929	-48.552148
69.00	-46.335605	-49.086943
69.10	-46.328280	-49.353342
69.20	-46.320956	-48.697775
69.30	-46.313631	-47.884815
69.40	-46.306307	-46.884780
69.50	-46.298983	-46.775543
69.60	-46.291658	-47.204926
69.70	-46.284334	-48.326203
69.80	-46.277009	-48.864865
69.90	-46.269685	-49.007115
70.00	-46.262360	-48.922952
70.10	-46.255036	-48.677609
70.20	-46.247711	-48.997970
70.30	-46.240387	-48.836194
70.40	-46.233062	-49.429554
70.50	-46.225738	-49.897737
70.60	-46.218413	-50.713215
70.70	-46.211089	-51.280165
70.80	-46.203764	-51.493308
70.90	-46.196440	-51.602406
71.00	-46.189116	-51.843569
71.10	-46.181791	-51.964368
71.20	-46.174467	-52.070951
71.30	-46.167142	-51.811645
71.40	-46.159818	-51.213195
71.50	-46.152493	-50.217512
71.60	-46.145169	-48.713892
71.70	-46.137844	-47.881362
71.80	-46.130520	-47.344071
71.90	-46.123195	-47.827015
72.00	-46.115871	-48.399252
72.10	-46.108546	-48.996651
72.20	-46.104404	-49.027758
72.30	-46.102846	-48.748552
72.40	-46.101289	-47.872053
72.50	-46.099731	-47.058398
72.60	-46.098173	-46.253229
72.70	-46.096616	-46.909018
72.80	-46.095058	-48.027588
72.90	-46.093501	-49.915823
73.00	-46.091943	-51.233161
73.10	-46.090385	-51.736023
73.20	-46.088828	-51.648219
73.30	-46.087270	-51.188614
73.40	-46.085713	-50.655842
73.50	-46.084155	-50.450998
73.60	-46.082598	-50.303660
73.70	-46.081040	-49.999606
73.80	-46.079482	-49.453129
73.90	-46.077925	-49.247356
74.00	-46.076367	-48.827593
74.10	-46.074810	-48.987379
74.20	-46.073252	-48.847987
74.30	-46.071694	-49.144060
74.40	-46.070137	-49.490066
74.50	-46.068579	-49.898318
74.60	-46.067022	-50.216385
74.70	-46.065464	-50.076150
74.80	-46.063907	-49.922312
74.90	-46.062349	-49.182245
75.00	-46.060791	-48.841704
75.10	-46.059234	-47.793992
75.20	-46.057676	-48.126367
75.30	-46.056119	-48.203680
75.40	-46.054561	-49.156166
75.50	-46.053003	-49.748169
75.60	-46.051446	-49.975340
75.70	-46.049888	-50.171100
75.80	-46.048331	-49.852039
75.90	-46.046773	-49.880815
76.00	-46.045215	-49.490571
76.10	-46.043658	-49.494257
76.20	-46.042100	-49.261422
76.30	-46.040543	-49.330482
76.40	-46.038985	-49.071953
76.50	-46.037428	-49.154114
76.60	-46.035870	-49.214774
76.70	-46.034312	-49.352192
76.80	-46.032755	-49.711250
76.90	-46.031197	-49.695477
77.00	-46.029640	-49.429141
77.10	-46.028082	-49.223875
77.20	-46.026524	-48.752182
77.30	-46.024967	-49.331217
77.40	-46.023409	-49.595752
77.50	-46.021852	-50.187490
77.60	-46.020294	-50.375499
77.70	-46.018736	-50.449215
77.80	-46.017179	-50.050911
77.90	-46.015621	-48.960362
78.00	-46.014064	-47.115401
78.10	-46.012506	-46.849290
78.20	-46.010949	-47.392409
78.30	-46.009391	-49.311877
78.40	-46.007833	-50.950735
78.50	-46.006276	-51.820308
78.60	-46.004718	-51.983209
78.70	-46.003161	-51.452473
78.80	-46.001603	-51.130998
78.90	-46.000045	-50.608833
79.00	-45.994504	-50.625830
79.10	-45.988843	-50.212781
79.20	-45.983182	-49.615984
79.30	-45.977521	-48.670747
79.40	-45.971860	-48.064032
79.50	-45.966199	-47.833911
79.60	-45.960538	-47.967552
79.70	-45.954877	-48.343179
79.80	-45.949216	-48.514659
79.90	-45.943555	-48.885043
80.00	-45.937894	-49.111191
80.10	-45.932233	-49.665266
80.20	-45.926572	-49.758566
80.30	-45.920911	-49.613601
80.40	-45.915250	-49.862259
80.50	-45.909589	-49.774321
80.60	-45.903928	-50.448289
80.70	-45.898267	-50.424212
80.80	-45.892606	-50.384350
80.90	-45.886945	-49.562209
81.00	-45.881284	-48.659695
81.10	-45.875623	-48.327817
81.20	-45.869962	-48.693543
81.30	-45.864301	-50.081237
81.40	-45.858640	-51.423419
81.50	-45.852979	-52.396439
81.60	-45.847318	-52.591104
81.70	-45.841657	-52.296765
81.80	-45.835996	-51.458102
81.90	-45.830335	-50.472822
82.00	-45.824674	-49.613396
82.10	-45.819013	-49.184423
82.20	-45.813352	-49.103096
82.30	-45.807691	-49.259356
82.40	-45.802030	-49.073119
82.50	-45.796369	-49.456851
82.60	-45.790708	-49.310148
82.70	-45.785047	-49.981277
82.80	-45.779386	-49.972124
82.90	-45.773725	-49.741831
83.00	-45.768064	-49.286841
83.10	-45.762403	-48.658414
83.20	-45.756742	-47.985836
83.30	-45.751081	-47.307493
83.40	-45.745420	-46.786333
83.50	-45.739759	-46.432629
83.60	-45.734098	-47.245467
83.70	-45.728437	-48.625401
83.80	-45.722776	-50.569890
83.90	-45.717115	-52.082602
84.00	-45.711454	-52.927230
84.10	-45.705793	-52.962344
84.20	-45.700132	-52.444318
84.30	-45.694471	-51.693024
84.40	-45.688810	-51.019795
84.50	-45.683149	-50.716970
84.60	-45.677488	-50.834810
84.70	-45.671827	-51.460838
84.80	-45.666166	-51.866733
84.90	-45.660505	-52.143452
85.00	-45.654844	-52.341561
85.10	-45.649183	-52.744697
85.20	-45.643522	-53.585725
85.30	-45.637861	-54.464878
85.40	-45.632200	-55.248492
85.50	-45.626538	-55.764861