# TStellate2_CT1 Optimisation
# 20130812+17:28:12
 
#param.w.x[lsr][ts] = 0.001216	[1e-07,0.3]
#param.w.x[hsr][ts] = 0.000983397	[1e-07,0.3]
#param.w.x[ds][ts] = 0.000561479	[1e-07,0.3]
#param.w.x[tv][ts] = 2.00741e-05	[1e-07,0.3]
#param.w.x[glg][ts] = 0.000248028	[1e-07,0.3]
# final error=38.374233
# Threshold level 10 
# Threshold rate 475 
# TS exemplar RMP -60.9
# TS exemplar CF 9100
# Time	 IV @spl=20 (mV)	 IV @spl=30 (mV)	 IV @spl=40 (mV)
-20.00	-65.000000	-65.000000	-65.000000
-19.90	-64.870929	-64.870929	-64.870929
-19.80	-64.748355	-64.748355	-64.748355
-19.70	-64.631860	-64.631860	-64.631860
-19.60	-64.521157	-64.521157	-64.521157
-19.50	-64.415985	-64.415985	-64.415985
-19.40	-64.316094	-64.316094	-64.316094
-19.30	-64.221243	-64.221243	-64.221243
-19.20	-64.131203	-64.131203	-64.131203
-19.10	-64.045750	-64.045750	-64.045750
-19.00	-63.964613	-63.964613	-63.964613
-18.90	-63.887584	-63.887584	-63.887584
-18.80	-63.814474	-63.814474	-63.814474
-18.70	-63.745098	-63.745098	-63.745098
-18.60	-63.679282	-63.679282	-63.679282
-18.50	-63.616859	-63.616859	-63.616859
-18.40	-63.557667	-63.557667	-63.557667
-18.30	-63.501552	-63.501552	-63.501552
-18.20	-63.448365	-63.448365	-63.448365
-18.10	-63.397966	-63.397966	-63.397966
-18.00	-63.350218	-63.350218	-63.350218
-17.90	-63.304976	-63.304976	-63.304976
-17.80	-63.262090	-63.262090	-63.262090
-17.70	-63.221441	-63.221441	-63.221441
-17.60	-63.182917	-63.182917	-63.182917
-17.50	-63.146413	-63.147193	-63.146413
-17.40	-63.111829	-63.114022	-63.111829
-17.30	-63.079070	-63.083177	-63.079070
-17.20	-63.048043	-63.032122	-63.048043
-17.10	-62.996339	-62.967273	-63.018662
-17.00	-62.952782	-62.915606	-62.990841
-16.90	-62.915530	-62.873954	-62.964504
-16.80	-62.883253	-62.840002	-62.917281
-16.70	-62.854955	-62.812028	-62.855680
-16.60	-62.829892	-62.766468	-62.806730
-16.50	-62.785823	-62.664374	-62.767352
-16.40	-62.727976	-62.545645	-62.713563
-16.30	-62.660859	-62.393515	-62.628214
-16.20	-62.587813	-62.241155	-62.564686
-16.10	-62.511337	-62.090713	-62.495451
-16.00	-62.433722	-61.922182	-62.422585
-15.90	-62.268583	-61.765432	-62.347361
-15.80	-62.107333	-61.595003	-62.271285
-15.70	-61.972274	-61.460118	-62.153997
-15.60	-61.835040	-61.264101	-62.071378
-15.50	-61.742320	-61.085537	-61.883784
-15.40	-61.661083	-60.942369	-61.686521
-15.30	-61.567110	-60.802997	-61.506604
-15.20	-61.486792	-60.605752	-61.363449
-15.10	-61.307262	-60.420612	-61.119967
-15.00	-61.148994	-60.235721	-60.891807
-14.90	-61.026822	-60.008946	-60.698268
-14.80	-60.888938	-59.718204	-60.528924
-14.70	-60.720699	-59.111832	-60.379248
-14.60	-60.575731	-58.501342	-60.268598
-14.50	-60.337330	-58.408467	-60.121683
-14.40	-60.117753	-58.628573	-59.953732
-14.30	-59.935506	-59.107505	-59.789782
-14.20	-59.761118	-59.552071	-59.584123
-14.10	-59.614629	-59.804369	-59.333298
-14.00	-59.467542	-59.844910	-59.105069
-13.90	-59.257164	-59.871699	-58.833936
-13.80	-59.046604	-59.908406	-58.625377
-13.70	-58.880574	-59.879661	-58.381527
-13.60	-58.703652	-59.819798	-58.163795
-13.50	-58.498338	-59.737117	-57.967347
-13.40	-58.338750	-59.639856	-57.706212
-13.30	-58.223204	-59.509653	-57.246361
-13.20	-58.059972	-59.378230	-56.189792
-13.10	-57.884211	-59.270635	-55.609670
-13.00	-57.701999	-59.135212	-55.068357
-12.90	-57.324988	-59.008461	-55.530077
-12.80	-56.510657	-58.916789	-56.356129
-12.70	-56.366018	-58.760771	-57.186943
-12.60	-56.211929	-58.478936	-57.674882
-12.50	-56.615297	-57.780708	-57.833886
-12.40	-56.411835	-57.590691	-57.735661
-12.30	-56.747627	-57.508170	-57.473457
-12.20	-56.875545	-57.982309	-56.839267
-12.10	-57.501049	-58.468683	-55.767107
-12.00	-58.028630	-58.821319	-55.332172
-11.90	-58.361526	-58.930172	-55.523571
-11.80	-58.437322	-58.998168	-56.492887
-11.70	-58.444500	-59.022332	-57.379649
-11.60	-58.411604	-59.027318	-57.694532
-11.50	-58.313748	-58.918797	-57.248245
-11.40	-58.150416	-58.855260	-57.137194
-11.30	-57.960168	-58.762443	-57.053884
-11.20	-57.778557	-58.670095	-57.363311
-11.10	-57.655685	-58.491677	-57.721953
-11.00	-57.529825	-58.379988	-57.852022
-10.90	-57.341202	-58.192591	-57.623695
-10.80	-57.133099	-58.057448	-56.842032
-10.70	-56.731763	-57.896426	-56.717592
-10.60	-55.816188	-57.777492	-56.572936
-10.50	-55.277005	-57.639552	-56.955666
-10.40	-54.835466	-57.509931	-57.214042
-10.30	-55.388551	-57.404578	-56.921995
-10.20	-56.370148	-57.247819	-56.491558
-10.10	-57.192884	-57.093578	-56.172661
-10.00	-57.589091	-56.956368	-55.781619
-9.90	-57.675877	-56.804089	-56.097814
-9.80	-57.710167	-56.498418	-56.472891
-9.70	-57.701491	-56.050176	-57.248554
-9.60	-57.678875	-55.234668	-57.871968
-9.50	-57.676167	-54.936620	-58.286696
-9.40	-57.596269	-54.593271	-58.500148
-9.30	-57.324749	-54.732610	-58.587765
-9.20	-56.735429	-54.768509	-58.634018
-9.10	-56.361999	-54.898711	-58.593195
-9.00	-56.267057	-55.213397	-58.561321
-8.90	-56.594039	-55.094399	-58.504565
-8.80	-56.979681	-54.177845	-58.418770
-8.70	-56.953884	-54.103886	-58.337444
-8.60	-56.541758	-54.148921	-58.242918
-8.50	-56.556371	-54.779396	-58.143048
-8.40	-56.701992	-55.471605	-58.071266
-8.30	-57.343178	-55.778931	-57.943411
-8.20	-57.749740	-56.019717	-57.859009
-8.10	-57.895800	-56.699735	-57.760143
-8.00	-57.731244	-57.180172	-57.688264
-7.90	-57.118027	-57.979153	-57.582463
-7.80	-56.816097	-58.507517	-57.446376
-7.70	-56.680037	-58.763257	-57.210081
-7.60	-57.041037	-58.878570	-56.704628
-7.50	-57.088996	-58.895668	-56.317600
-7.40	-57.049845	-58.882914	-56.135126
-7.30	-57.105220	-58.835239	-56.218012
-7.20	-57.543803	-58.717639	-56.185628
-7.10	-58.050539	-58.626410	-56.471752
-7.00	-58.391075	-58.506733	-56.696825
-6.90	-58.544682	-58.313624	-57.316990
-6.80	-58.590033	-58.038101	-57.646360
-6.70	-58.557944	-57.531254	-57.635183
-6.60	-58.434809	-57.215947	-57.296431
-6.50	-58.253104	-57.185456	-57.313095
-6.40	-57.989940	-57.613558	-57.460543
-6.30	-57.532746	-58.131609	-58.059593
-6.20	-57.180036	-58.535632	-58.498013
-6.10	-57.136596	-58.708091	-58.745394
-6.00	-57.533042	-58.725021	-58.755885
-5.90	-58.013439	-58.659789	-58.712926
-5.80	-58.309268	-58.586012	-58.686692
-5.70	-58.386552	-58.555923	-58.637891
-5.60	-58.368031	-58.561172	-58.579479
-5.50	-58.341515	-58.491649	-58.489528
-5.40	-58.320759	-58.471730	-58.438345
-5.30	-58.325327	-58.489514	-58.287985
-5.20	-58.347805	-58.410763	-58.146498
-5.10	-58.299467	-58.276502	-58.056544
-5.00	-58.199743	-58.183489	-57.918198
-4.90	-58.095827	-58.075548	-57.765655
-4.80	-57.981478	-57.950820	-57.627505
-4.70	-57.866353	-57.865391	-57.418874
-4.60	-57.620708	-57.778740	-57.133052
-4.50	-56.891105	-57.733888	-56.645062
-4.40	-56.902901	-57.611643	-56.294228
-4.30	-56.847920	-57.503697	-56.229440
-4.20	-57.380914	-57.403600	-56.574014
-4.10	-57.908986	-57.260860	-56.992137
-4.00	-58.276380	-56.823062	-57.012932
-3.90	-58.401461	-56.650373	-56.875629
-3.80	-58.428764	-56.700935	-56.970928
-3.70	-58.366135	-57.268512	-57.296535
-3.60	-58.288591	-57.880557	-57.911884
-3.50	-58.183000	-58.332958	-58.347666
-3.40	-58.093648	-58.580330	-58.583908
-3.30	-57.956966	-58.738096	-58.638480
-3.20	-57.778517	-58.837384	-58.632365
-3.10	-57.638525	-58.842694	-58.607884
-3.00	-57.509985	-58.869959	-58.511217
-2.90	-57.332891	-58.869316	-58.206833
-2.80	-56.971762	-58.831468	-57.795865
-2.70	-56.437495	-58.707383	-57.806997
-2.60	-56.404236	-58.595581	-58.033036
-2.50	-56.447913	-58.468781	-58.621764
-2.40	-56.998822	-58.371664	-58.975846
-2.30	-57.300254	-58.235857	-59.178637
-2.20	-57.334826	-58.109629	-59.240697
-2.10	-57.025186	-57.929019	-59.228067
-2.00	-56.325725	-57.721574	-59.187025
-1.90	-56.143497	-57.508731	-59.057329
-1.80	-55.880697	-57.282485	-58.845590
-1.70	-56.077315	-57.039083	-58.392551
-1.60	-55.737968	-56.755209	-57.926720
-1.50	-55.455163	-56.366309	-57.943758
-1.40	-55.094341	-55.614542	-58.283651
-1.30	-55.596702	-55.267472	-58.808614
-1.20	-56.302703	-55.017807	-59.168143
-1.10	-57.070855	-55.345285	-59.327402
-1.00	-57.542434	-55.629974	-59.322279
-0.90	-57.699390	-55.595308	-59.251967
-0.80	-57.666185	-55.006786	-59.211721
-0.70	-57.510381	-54.861189	-59.155972
-0.60	-57.213015	-54.637137	-59.053696
-0.50	-56.543956	-54.641905	-58.956076
-0.40	-55.603203	-54.709972	-58.860593
-0.30	-55.302628	-54.908206	-58.769596
-0.20	-55.578745	-55.236862	-58.658720
-0.10	-56.496285	-55.640727	-58.548658
0.00	-57.329966	-55.782375	-58.411892
0.10	-57.489195	-55.352892	-58.271650
0.20	-57.581474	-54.170307	-58.109614
0.30	-57.730193	-52.658618	-57.905568
0.40	-58.241766	-51.999123	-57.568966
0.50	-58.782424	-52.159969	-56.704933
0.60	-59.187239	-53.221040	-56.518633
0.70	-59.331077	-54.374848	-56.328153
0.80	-59.389181	-55.073473	-56.582698
0.90	-59.429672	-56.227088	-56.463645
1.00	-59.467105	-57.164426	-56.488887
1.10	-59.465579	-58.412289	-56.508775
1.20	-59.481180	-59.156774	-56.915127
1.30	-59.448955	-59.514125	-57.291934
1.40	-59.444807	-59.582742	-57.188768
1.50	-59.438663	-59.328141	-56.940173
1.60	-59.431240	-58.772027	-56.798599
1.70	-59.380958	-58.712058	-56.824714
1.80	-59.339161	-58.737343	-57.050996
1.90	-59.301697	-59.276091	-57.470885
2.00	-59.245263	-59.684179	-57.963328
2.10	-59.215316	-59.874541	-58.606121
2.20	-59.137260	-59.882128	-58.945853
2.30	-59.024400	-59.889122	-59.146104
2.40	-58.835661	-59.802894	-59.248919
2.50	-58.619307	-59.641086	-59.193353
2.60	-58.007055	-59.486981	-59.145914
2.70	-57.703722	-59.359306	-59.147506
2.80	-57.676939	-59.200028	-59.166519
2.90	-58.058653	-59.040604	-59.091840
3.00	-58.561444	-58.854987	-59.016341
3.10	-58.934695	-58.511170	-58.962812
3.20	-59.019739	-57.787648	-58.908347
3.30	-58.975653	-57.457559	-58.803903
3.40	-58.836018	-57.279688	-58.749025
3.50	-58.686417	-57.408589	-58.650528
3.60	-58.553316	-57.559047	-58.600416
3.70	-58.437194	-57.444787	-58.524024
3.80	-58.370218	-57.144782	-58.404913
3.90	-58.260027	-57.074751	-58.304031
4.00	-58.197174	-57.259092	-58.206788
4.10	-58.148231	-57.611792	-58.079314
4.20	-58.069911	-57.646952	-57.986740
4.30	-57.954513	-57.174303	-57.865994
4.40	-57.858808	-57.253573	-57.693673
4.50	-57.765604	-57.231277	-57.419023
4.60	-57.657473	-57.571701	-56.726129
4.70	-57.513481	-57.531883	-56.528185
4.80	-57.270532	-57.898412	-56.295248
4.90	-56.907609	-58.076305	-56.546115
5.00	-56.150225	-58.820691	-56.308567
5.10	-55.229286	-59.340713	-56.459349
5.20	-55.042484	-59.676710	-56.282631
5.30	-55.121274	-59.742763	-56.070432
5.40	-55.999921	-59.766630	-56.566206
5.50	-56.797916	-59.699100	-56.908180
5.60	-57.612580	-59.615630	-57.533167
5.70	-58.265876	-59.502680	-58.006731
5.80	-58.687132	-59.430930	-58.223902
5.90	-58.899140	-59.301448	-58.141098
6.00	-58.925582	-59.110134	-57.823520
6.10	-58.775741	-58.979992	-57.081132
6.20	-58.515409	-58.749804	-55.767364
6.30	-57.730935	-58.358104	-54.701207
6.40	-57.539297	-57.896296	-53.629547
6.50	-57.373223	-57.376243	-52.844028
6.60	-57.762466	-56.426657	-51.282716
6.70	-57.943576	-55.280782	-48.563961
6.80	-57.952710	-53.459317	-45.088482
6.90	-57.757955	-51.762840	-41.936856
7.00	-57.262305	-49.336732	-37.194682
7.10	-56.279457	-45.954001	-32.890745
7.20	-54.899659	-42.433726	-29.734469
7.30	-53.874469	-37.668866	-31.542410
7.40	-52.363402	-32.045405	-35.643062
7.50	-50.905749	-28.444401	-42.794631
7.60	-48.167993	-28.514121	-49.039944
7.70	-43.761813	-33.747587	-53.925813
7.80	-37.744196	-40.039403	-57.106295
7.90	-34.541662	-47.640144	-59.004890
8.00	-31.504144	-53.081510	-59.864667
8.10	-32.242057	-56.637708	-60.178497
8.20	-34.270188	-58.310352	-60.104309
8.30	-38.958931	-58.866479	-59.955865
8.40	-43.877654	-58.798699	-59.852547
8.50	-49.569727	-58.353761	-59.714813
8.60	-53.819722	-57.891142	-59.413624
8.70	-56.380101	-57.385609	-58.995303
8.80	-57.285707	-56.997448	-58.982219
8.90	-57.074105	-56.706327	-59.191698
9.00	-56.334756	-56.617077	-59.402502
9.10	-55.397607	-56.653323	-59.515573
9.20	-53.828746	-56.714615	-59.223605
9.30	-52.822749	-56.731864	-58.698641
9.40	-51.793772	-56.809070	-58.179807
9.50	-51.317487	-56.747511	-57.353115
9.60	-50.525583	-56.700062	-56.390589
9.70	-49.153034	-56.476347	-55.344167
9.80	-47.917935	-56.179519	-53.962451
9.90	-46.746600	-55.779528	-51.945582
10.00	-45.780752	-55.236853	-49.694113
10.10	-44.787557	-54.464575	-48.316010
10.20	-44.544652	-53.465683	-47.469459
10.30	-45.685833	-51.806266	-47.700817
10.40	-47.643699	-50.401979	-48.112634
10.50	-49.390938	-48.130644	-47.441327
10.60	-50.175966	-47.286094	-47.182523
10.70	-50.889905	-45.626150	-46.196513
10.80	-51.508172	-45.301358	-45.302834
10.90	-52.308339	-44.890098	-43.493334
11.00	-53.452524	-45.004066	-42.459930
11.10	-54.156783	-44.412403	-40.247223
11.20	-55.173524	-43.529391	-41.513173
11.30	-55.805259	-42.915720	-43.091733
11.40	-56.121503	-41.818390	-46.074818
11.50	-55.985897	-43.623639	-48.320045
11.60	-55.475683	-45.469748	-49.939482
11.70	-54.708623	-48.679921	-51.172601
11.80	-53.505478	-50.611855	-52.602658
11.90	-52.678278	-52.150400	-54.299538
12.00	-51.429252	-52.351385	-55.800681
12.10	-50.377154	-52.272283	-56.280465
12.20	-49.483493	-52.355108	-55.957147
12.30	-48.777025	-53.024927	-54.734122
12.40	-48.518584	-54.003448	-53.860540
12.50	-48.555399	-54.606107	-53.251974
12.60	-47.731752	-54.179248	-53.119648
12.70	-46.546776	-53.289676	-52.958469
12.80	-46.466416	-52.592822	-52.541802
12.90	-46.319527	-52.213439	-51.747608
13.00	-46.321760	-52.057410	-51.733670
13.10	-44.566763	-50.930703	-51.661299
13.20	-44.340245	-50.878772	-51.858206
13.30	-44.722921	-50.574914	-51.356416
13.40	-47.446604	-50.706037	-50.104918
13.50	-49.762186	-50.226226	-49.249104
13.60	-51.705199	-49.532483	-48.553791
13.70	-53.085283	-49.025709	-47.780071
13.80	-53.990214	-49.429673	-46.336767
13.90	-54.529524	-49.401666	-44.519657
14.00	-54.637499	-48.820868	-43.586607
14.10	-54.414937	-48.613032	-43.191438
14.20	-53.800105	-48.078793	-44.253636
14.30	-53.590373	-47.402873	-46.749427
14.40	-53.783946	-47.154437	-49.387096
14.50	-54.313794	-46.243991	-51.944961
14.60	-55.008470	-47.041428	-53.008450
14.70	-55.238217	-48.891773	-53.348017
14.80	-55.063549	-51.288758	-53.474372
14.90	-54.531065	-52.992579	-53.584689
15.00	-53.797614	-54.008705	-54.614986
15.10	-52.847949	-54.243532	-54.866203
15.20	-51.274057	-53.922287	-55.399923
15.30	-49.489090	-54.168316	-55.328939
15.40	-47.322014	-54.038665	-54.819735
15.50	-45.476337	-53.996131	-53.985301
15.60	-43.812149	-53.100261	-52.951001
15.70	-43.394813	-51.958868	-51.095447
15.80	-44.892770	-51.369831	-48.660477
15.90	-46.508509	-50.928995	-46.693275
16.00	-49.605940	-50.081877	-45.496786
16.10	-51.716163	-49.884617	-45.828597
16.20	-53.108485	-48.868497	-46.277498
16.30	-53.351576	-49.164796	-46.333467
16.40	-52.464185	-49.162874	-46.658949
16.50	-51.493310	-49.571328	-46.794911
16.60	-50.524690	-49.783805	-47.169220
16.70	-50.604876	-50.100465	-47.682590
16.80	-49.947910	-50.569461	-48.867059
16.90	-49.812462	-51.045954	-50.629057
17.00	-49.596724	-51.811203	-52.761382
17.10	-50.626826	-52.017243	-54.322279
17.20	-51.928977	-52.034082	-54.872710
17.30	-52.952289	-51.198966	-54.198356
17.40	-53.048332	-49.732976	-53.429106
17.50	-52.892433	-48.065699	-52.968285
17.60	-51.702032	-46.433824	-52.532454
17.70	-51.094327	-46.393113	-52.410057
17.80	-50.587558	-47.030095	-52.397047
17.90	-49.849912	-48.558562	-52.695781
18.00	-50.042938	-50.096506	-53.064987
18.10	-49.870800	-50.646317	-52.725147
18.20	-50.286162	-50.956779	-52.477795
18.30	-50.615740	-50.822097	-52.021344
18.40	-50.175117	-51.062107	-51.563926
18.50	-49.773220	-51.357478	-51.196943
18.60	-48.671207	-52.174232	-50.106817
18.70	-47.742872	-52.433090	-49.336792
18.80	-46.887905	-52.436650	-48.546636
18.90	-47.770044	-51.600609	-48.446623
19.00	-48.941821	-50.778822	-47.737647
19.10	-51.084122	-50.571027	-46.747770
19.20	-52.082946	-50.786739	-45.833306
19.30	-52.320548	-50.745882	-45.887643
19.40	-51.883203	-50.025717	-47.009880
19.50	-50.523927	-48.680119	-47.926128
19.60	-49.928576	-47.401175	-48.106379
19.70	-49.210877	-47.417305	-48.468524
19.80	-49.071755	-48.124735	-49.407978
19.90	-49.974446	-48.953338	-51.197763
20.00	-50.839175	-49.754009	-52.648661
20.10	-51.398316	-50.713009	-53.181279
20.20	-52.396910	-51.849530	-53.294237
20.30	-52.956221	-53.185644	-52.781632
20.40	-53.940290	-53.771186	-51.562596
20.50	-54.535992	-53.338700	-50.220814
20.60	-54.522215	-52.640848	-49.478632
20.70	-53.755891	-51.303164	-49.377331
20.80	-52.138115	-50.905648	-51.004454
20.90	-50.456378	-50.314042	-52.345236
21.00	-49.011709	-50.950541	-53.354321
21.10	-48.376122	-50.838654	-53.412747
21.20	-48.753413	-50.589368	-52.794430
21.30	-48.532761	-49.688277	-52.121232
21.40	-49.320750	-49.598373	-51.888487
21.50	-50.085435	-49.717481	-51.125782
21.60	-51.171413	-49.628538	-51.122751
21.70	-51.959915	-49.966274	-50.803536
21.80	-52.221274	-49.489798	-51.244240
21.90	-52.227675	-50.051012	-51.917863
22.00	-52.445193	-49.866822	-52.135469
22.10	-52.418083	-50.006016	-52.136669
22.20	-52.137183	-49.917008	-51.214621
22.30	-51.727326	-49.718179	-48.742381
22.40	-50.463902	-48.925713	-46.613379
22.50	-49.351047	-48.465578	-45.237002
22.60	-48.161139	-47.445208	-45.454375
22.70	-47.656937	-47.474364	-46.539722
22.80	-48.434208	-47.767800	-48.301135
22.90	-49.222192	-48.502345	-48.928315
23.00	-49.405383	-49.425626	-49.028709
23.10	-49.957687	-50.201937	-48.893072
23.20	-50.499973	-50.575705	-48.769309
23.30	-52.271244	-51.303558	-49.440390
23.40	-53.249261	-52.034857	-50.799051
23.50	-53.582794	-52.554335	-51.282749
23.60	-53.801079	-52.306393	-51.802593
23.70	-53.154055	-51.852296	-52.407735
23.80	-52.929387	-51.329811	-53.027089
23.90	-52.537456	-50.820078	-53.869689
24.00	-52.788457	-50.710479	-54.294322
24.10	-52.864247	-50.503190	-54.121912
24.20	-52.819503	-49.924388	-53.359154
24.30	-51.853793	-49.719721	-51.716319
24.40	-50.316378	-48.929283	-49.802149
24.50	-49.772811	-48.924522	-48.389474
24.60	-48.789938	-49.813166	-47.501277
24.70	-50.018565	-51.331406	-48.102203
24.80	-50.823548	-52.403926	-48.287152
24.90	-51.861805	-52.463300	-48.523601
25.00	-51.815929	-51.416870	-49.004008
25.10	-51.515289	-51.440032	-49.566593
25.20	-51.380180	-51.374900	-50.319722
25.30	-51.255595	-52.650527	-51.347839
25.40	-51.155560	-53.012680	-52.208970
25.50	-50.863135	-52.267338	-53.091087
25.60	-49.923960	-51.862796	-53.822628
25.70	-49.158995	-51.555764	-53.628116
25.80	-49.439026	-51.816899	-52.566977
25.90	-50.230119	-51.814388	-52.262215
26.00	-51.363399	-50.838784	-52.175928
26.10	-51.361564	-50.269652	-52.734793
26.20	-51.319812	-50.049801	-52.723631
26.30	-50.472867	-50.620922	-51.894359
26.40	-50.086215	-51.604862	-50.558771
26.50	-49.710737	-52.149476	-49.171099
26.60	-50.422296	-52.358370	-48.270571
26.70	-51.527683	-52.249600	-48.242936
26.80	-52.977906	-51.641017	-48.407351
26.90	-53.545942	-51.191569	-48.498926
27.00	-52.693160	-50.271678	-47.962896
27.10	-52.074579	-49.565224	-46.224088
27.20	-51.897933	-49.213151	-45.761365
27.30	-52.458074	-47.531229	-46.461321
27.40	-53.210495	-47.507664	-48.350022
27.50	-53.518025	-47.736530	-49.786685
27.60	-53.278931	-48.705443	-50.702954
27.70	-52.454164	-50.114942	-50.768587
27.80	-50.838162	-50.544366	-50.370254
27.90	-49.839999	-50.654087	-50.154796
28.00	-49.668555	-50.057679	-51.234655
28.10	-50.941521	-49.995751	-52.178171
28.20	-52.658723	-50.336549	-53.771611
28.30	-53.977981	-51.086229	-54.482695
28.40	-54.431925	-51.512415	-54.962933
28.50	-53.849031	-51.442177	-54.928166
28.60	-52.799312	-51.320761	-55.119683
28.70	-51.272869	-50.984450	-54.772897
28.80	-49.767598	-50.232922	-53.468702
28.90	-49.026937	-49.041817	-52.277507
29.00	-49.454680	-48.166984	-51.701316
29.10	-49.882973	-48.060052	-51.871674
29.20	-49.991637	-47.909645	-52.382410
29.30	-50.394403	-48.538423	-53.261012
29.40	-50.461828	-48.160553	-53.442195
29.50	-51.094674	-48.143211	-53.685412
29.60	-51.480331	-49.097123	-53.557227
29.70	-51.068917	-50.372806	-52.372261
29.80	-49.463304	-51.963156	-50.869758
29.90	-48.678812	-52.221762	-49.984527
30.00	-49.006295	-51.831152	-49.609730
30.10	-50.259311	-51.056193	-49.839248
30.20	-51.623223	-50.678422	-50.028177
30.30	-52.396996	-50.882767	-48.986214
30.40	-52.461370	-51.715322	-48.801676
30.50	-52.948619	-52.273749	-48.745217
30.60	-53.389909	-53.025759	-48.931897
30.70	-53.692036	-53.013093	-48.898939
30.80	-54.609904	-53.251322	-49.284812
30.90	-54.857341	-52.768046	-49.672251
31.00	-55.201688	-52.894159	-50.927018
31.10	-54.912440	-53.074385	-52.483147
31.20	-53.586028	-53.674288	-53.674300
31.30	-52.808478	-54.434761	-54.343507
31.40	-52.133899	-54.867313	-54.157196
31.50	-51.701288	-54.728992	-54.089955
31.60	-51.939108	-54.156526	-53.658348
31.70	-51.458816	-53.139303	-53.418775
31.80	-51.413309	-52.555911	-53.317388
31.90	-50.327563	-51.765825	-53.146848
32.00	-49.600028	-51.245948	-52.759748
32.10	-49.387328	-49.922710	-51.883624
32.20	-49.893343	-48.105843	-51.141519
32.30	-51.489210	-46.635908	-50.418318
32.40	-52.443443	-45.532519	-49.484097
32.50	-52.532357	-45.643764	-49.977305
32.60	-51.893404	-46.480552	-49.818764
32.70	-51.229709	-47.703122	-50.154551
32.80	-50.311137	-48.338007	-49.876958
32.90	-49.958657	-47.673138	-49.660834
33.00	-50.361006	-46.897156	-48.914941
33.10	-51.164185	-45.522702	-47.815022
33.20	-52.214008	-45.668362	-47.134642
33.30	-51.594248	-46.849815	-46.806266
33.40	-51.581872	-48.854756	-47.868951
33.50	-51.210154	-50.716651	-48.564909
33.60	-51.122496	-51.836476	-48.123245
33.70	-50.703482	-52.853741	-47.574417
33.80	-50.246625	-53.247586	-45.934500
33.90	-49.266190	-54.058797	-46.171034
34.00	-48.112589	-53.971113	-46.966941
34.10	-47.972900	-53.816282	-48.431620
34.20	-48.400579	-52.920301	-50.014463
34.30	-50.223083	-52.489770	-51.777931
34.40	-51.950315	-51.194981	-53.285378
34.50	-52.724592	-51.135736	-54.733532
34.60	-53.582669	-51.461365	-55.533629
34.70	-53.767561	-52.270264	-55.756386
34.80	-54.773583	-53.304233	-55.396495
34.90	-54.949522	-53.554072	-54.476761
35.00	-54.239562	-53.685667	-52.982327
35.10	-53.582695	-53.265939	-51.236155
35.20	-53.033316	-52.968139	-49.995035
35.30	-52.879287	-52.868432	-49.340988
35.40	-53.218103	-52.274223	-49.050586
35.50	-53.139334	-51.737576	-49.700200
35.60	-53.715369	-50.867485	-50.329590
35.70	-53.757925	-50.298620	-51.379060
35.80	-53.912646	-49.442845	-51.419138
35.90	-53.634211	-48.640459	-51.096781
36.00	-52.998629	-48.429453	-50.089273
36.10	-53.055698	-48.395133	-50.104128
36.20	-52.628197	-49.596337	-50.054468
36.30	-52.513215	-49.961058	-49.770687
36.40	-52.314641	-50.365663	-49.470201
36.50	-52.610091	-50.447924	-49.409989
36.60	-52.798687	-50.529465	-49.316250
36.70	-52.823776	-51.429046	-49.777521
36.80	-51.583206	-52.362923	-49.362757
36.90	-51.166000	-52.839317	-48.469559
37.00	-50.124226	-51.849790	-47.725014
37.10	-49.627992	-50.972587	-46.332061
37.20	-48.597623	-49.146806	-47.301679
37.30	-48.051324	-48.689950	-48.319937
37.40	-48.167016	-48.114847	-50.144646
37.50	-48.678937	-48.689541	-51.148290
37.60	-49.573155	-50.219986	-52.281551
37.70	-50.388640	-51.894616	-52.848671
37.80	-50.266236	-53.165927	-53.781292
37.90	-50.555298	-54.391730	-53.963902
38.00	-50.391214	-54.815682	-53.283374
38.10	-50.251887	-55.332764	-52.824291
38.20	-49.949407	-55.531398	-52.636305
38.30	-50.033498	-55.291070	-52.775437
38.40	-50.534913	-54.645262	-52.756936
38.50	-52.157864	-53.381930	-52.520000
38.60	-53.488224	-52.247891	-52.154667
38.70	-54.637070	-50.457555	-51.108014
38.80	-55.351463	-49.466790	-49.864713
38.90	-55.630180	-48.181128	-49.328877
39.00	-55.671197	-47.722815	-49.637626
39.10	-55.681396	-47.427670	-50.731829
39.20	-55.188101	-47.711576	-51.046698
39.30	-54.380781	-48.538295	-50.816977
39.40	-53.656960	-49.943005	-50.117610
39.50	-52.504026	-51.605037	-49.288354
39.60	-51.884232	-52.994585	-49.665569
39.70	-50.831573	-53.345287	-50.312969
39.80	-49.546268	-53.671545	-51.623472
39.90	-49.527830	-53.528703	-52.462885
40.00	-49.837185	-53.340426	-52.448778
40.10	-51.052128	-52.677737	-52.024224
40.20	-51.955515	-51.225390	-50.994775
40.30	-51.221339	-50.160286	-51.073670
40.40	-50.503268	-48.665241	-50.387699
40.50	-49.783407	-47.778106	-50.955275
40.60	-50.188861	-46.090259	-50.761151
40.70	-51.490353	-45.033412	-50.571089
40.80	-52.791026	-45.480208	-50.533555
40.90	-53.819009	-46.218470	-50.230189
41.00	-53.953497	-47.549060	-50.806247
41.10	-53.468556	-48.243333	-50.570768
41.20	-52.673313	-49.349918	-50.085971
41.30	-50.954834	-50.850209	-49.333078
41.40	-49.712019	-53.213861	-48.467248
41.50	-48.403711	-55.058714	-48.300421
41.60	-48.177083	-55.832086	-48.854334
41.70	-48.918659	-55.976715	-49.317270
41.80	-50.013676	-55.303676	-49.875589
41.90	-50.858223	-54.034433	-50.122570
42.00	-51.832448	-53.366440	-50.118919
42.10	-51.468368	-52.245818	-50.127222
42.20	-51.852821	-52.584644	-48.823158
42.30	-51.529449	-52.641975	-48.110734
42.40	-52.235594	-52.142344	-48.135556
42.50	-52.593847	-51.914963	-47.987907
42.60	-52.832974	-51.906385	-48.914323
42.70	-51.685798	-51.874286	-49.932387
42.80	-49.474110	-52.184892	-50.715960
42.90	-48.611855	-52.140117	-52.409074
43.00	-47.159077	-52.275091	-53.396606
43.10	-48.400957	-52.283944	-53.867382
43.20	-48.953584	-52.677848	-54.443407
43.30	-49.877206	-52.918885	-54.732546
43.40	-50.831525	-52.489050	-55.229415
43.50	-51.468030	-52.287668	-55.612998
43.60	-52.616636	-51.532260	-55.579424
43.70	-53.422718	-51.116135	-55.124716
43.80	-54.088344	-50.131992	-54.219828
43.90	-53.754992	-49.613519	-53.514335
44.00	-52.660949	-48.866314	-52.164246
44.10	-51.732364	-48.768665	-51.400623
44.20	-50.734538	-49.296827	-50.542514
44.30	-50.794477	-50.561791	-50.420562
44.40	-51.211828	-51.883610	-50.478520
44.50	-51.657415	-52.346987	-50.130894
44.60	-52.200327	-52.086468	-49.583286
44.70	-53.131561	-51.264174	-49.208062
44.80	-53.502956	-50.578487	-49.397976
44.90	-53.333463	-50.222658	-50.309402
45.00	-53.239548	-49.585244	-51.633335
45.10	-52.777109	-50.120843	-52.534677
45.20	-52.138594	-49.768768	-53.382358
45.30	-51.387618	-49.150428	-53.171889
45.40	-49.967631	-49.120769	-52.208029
45.50	-49.446816	-49.079593	-51.698248
45.60	-48.379953	-49.818708	-50.862822
45.70	-48.614207	-50.938717	-51.123657
45.80	-48.362293	-51.716666	-50.386602
45.90	-49.566872	-51.627154	-49.414078
46.00	-50.790007	-52.462382	-49.051753
46.10	-52.207797	-52.886469	-49.203259
46.20	-52.202734	-53.122023	-49.894115
46.30	-50.668629	-53.353592	-50.813921
46.40	-49.523102	-53.275880	-50.898591
46.50	-48.967690	-53.363935	-50.532582
46.60	-50.104583	-53.389877	-50.041977
46.70	-51.722499	-52.814540	-50.076104
46.80	-52.574231	-51.991644	-50.698078
46.90	-52.845601	-50.927049	-51.836183
47.00	-53.099868	-50.758587	-52.703940
47.10	-53.520115	-50.404726	-53.604095
47.20	-54.101734	-50.501963	-53.559549
47.30	-54.263253	-48.938791	-53.111180
47.40	-53.237071	-47.585391	-52.782790
47.50	-51.957050	-47.707470	-52.421354
47.60	-50.729255	-48.104405	-52.183986
47.70	-49.436869	-50.026304	-51.700065
47.80	-48.823697	-50.887746	-50.653256
47.90	-49.041946	-52.459888	-50.532838
48.00	-49.404722	-53.437961	-50.949869
48.10	-51.136379	-54.983696	-51.877482
48.20	-51.843789	-55.853100	-52.336149
48.30	-51.810645	-56.032219	-51.844216
48.40	-51.486046	-55.603991	-51.318495
48.50	-50.634441	-54.854345	-51.123954
48.60	-50.133912	-53.452614	-51.477188
48.70	-50.050841	-52.120019	-52.187102
48.80	-50.566474	-50.758364	-52.273532
48.90	-51.311980	-50.495547	-51.668049
49.00	-51.763662	-50.490640	-51.322424
49.10	-51.757025	-49.924498	-50.418765
49.20	-51.620986	-49.604911	-50.250781
49.30	-51.683405	-48.546388	-50.080775
49.40	-51.931467	-47.205633	-50.092248
49.50	-52.866494	-45.652139	-50.850101
49.60	-53.090252	-46.226354	-51.386703
49.70	-52.730244	-47.276664	-52.230903
49.80	-51.877178	-50.457779	-52.497405
49.90	-51.878432	-52.892264	-52.320526
50.00	-51.857703	-54.220010	-50.486238
50.10	-52.364383	-54.741157	-49.619021
50.20	-52.460537	-54.505812	-49.074659
50.30	-51.447067	-55.031329	-49.607598
50.40	-51.116486	-55.456678	-50.477324
50.50	-50.721204	-56.015776	-50.497457
50.60	-51.524290	-56.243499	-50.469163
50.70	-52.111569	-55.990375	-50.338921
50.80	-52.258702	-54.824898	-49.628224
50.90	-50.799426	-54.391048	-50.244220
51.00	-50.444589	-53.757943	-50.289299
51.10	-49.756941	-53.605704	-51.604729
51.20	-50.534760	-53.244661	-53.183524
51.30	-50.783334	-51.736029	-54.449040
51.40	-51.780369	-51.338371	-55.499452
51.50	-51.692501	-50.752544	-55.605382
51.60	-51.469175	-50.971817	-55.459573
51.70	-51.953077	-51.359039	-54.994690
51.80	-52.525767	-51.140601	-54.342718
51.90	-53.930604	-50.571144	-54.412620
52.00	-55.092816	-50.214580	-54.112809
52.10	-55.677816	-49.137796	-53.528626
52.20	-55.637301	-49.821466	-53.027374
52.30	-55.276130	-49.863607	-52.883789
52.40	-54.601035	-49.917177	-53.019069
52.50	-53.628699	-50.206760	-53.161514
52.60	-52.917862	-49.985178	-52.226700
52.70	-51.568010	-49.995608	-52.105499
52.80	-50.931861	-49.855873	-51.574354
52.90	-50.164339	-49.368458	-51.438344
53.00	-50.221200	-48.851214	-50.239307
53.10	-50.629083	-48.581341	-49.535909
53.20	-50.999605	-48.185814	-48.949723
53.30	-50.399250	-47.550078	-49.060246
53.40	-50.216406	-47.707486	-49.130368
53.50	-49.675703	-48.839287	-49.259492
53.60	-49.744186	-50.073517	-49.359372
53.70	-50.660978	-52.458057	-49.398277
53.80	-50.990331	-53.466142	-48.187193
53.90	-52.290501	-54.403695	-47.936656
54.00	-52.765482	-54.635114	-47.863420
54.10	-52.627091	-54.581943	-49.574650
54.20	-52.140207	-54.904321	-52.119627
54.30	-51.945998	-54.694109	-54.524979
54.40	-51.616421	-54.459416	-55.678436
54.50	-52.896605	-54.043498	-55.926288
54.60	-53.476964	-53.660188	-55.472290
54.70	-53.772504	-53.578580	-54.219641
54.80	-52.490108	-53.335429	-53.321943
54.90	-52.158527	-52.699883	-52.437809
55.00	-51.864445	-51.918321	-52.277374
55.10	-52.709102	-50.451917	-52.302852
55.20	-53.004007	-50.607744	-51.455755
55.30	-53.209856	-50.872999	-50.387035
55.40	-53.109212	-52.334146	-49.961632
55.50	-53.254077	-53.749534	-50.092823
55.60	-54.114543	-54.917366	-51.112156