# TStellate_CT1 Optimisation
# Monday 5 November  22:42:01 EST 2012
 
#param.w.x[lsr][ts] = 0.0033	[1e-07,0.3]
#param.w.x[hsr][ts] = 0.0028039	[1e-07,0.3]
#param.w.x[ds][ts] = 0.000122	[1e-07,0.3]
#param.w.x[tv][ts] = 0.000178	[1e-07,0.3]
#param.w.x[glg][ts] = 0.00016	[1e-07,0.3]
#param.ts_gleak = 0.000473539	[5e-05,0.005]
#param.ts_erev = -62.9	[0.03,0.08]
# final error=14.550335
# Time	Error Vec	 Reference Vec (mV)
-20.00	-55.957497	-65.000000
-19.90	-55.957497	-64.878787
-19.80	-55.957497	-64.774341
-19.70	-55.957497	-64.682924
-19.60	-55.957497	-64.601805
-19.50	-55.957497	-64.528921
-19.40	-55.957497	-64.462706
-19.30	-55.957497	-64.401961
-19.20	-55.957497	-64.345769
-19.10	-55.957497	-64.293420
-19.00	-55.957497	-64.244365
-18.90	-55.957497	-64.196202
-18.80	-55.957497	-64.147699
-18.70	-55.957497	-64.100309
-18.60	-55.957497	-64.054813
-18.50	-55.957497	-64.009613
-18.40	-55.957497	-63.961989
-18.30	-55.957497	-63.912763
-18.20	-55.957497	-63.860638
-18.10	-55.957497	-63.803434
-18.00	-55.957497	-63.744459
-17.90	-55.957497	-63.683766
-17.80	-55.957497	-63.621649
-17.70	-55.957497	-63.562299
-17.60	-55.957497	-63.502196
-17.50	-55.957497	-63.435878
-17.40	-55.957497	-63.364729
-17.30	-55.957497	-63.289862
-17.20	-55.957497	-63.214273
-17.10	-55.957497	-63.138079
-17.00	-55.957497	-63.059620
-16.90	-55.957497	-62.978445
-16.80	-55.957497	-62.893111
-16.70	-55.957497	-62.808887
-16.60	-55.957497	-62.730522
-16.50	-55.957497	-62.658466
-16.40	-55.957497	-62.594348
-16.30	-55.957497	-62.538586
-16.20	-55.957497	-62.487170
-16.10	-55.957497	-62.433862
-16.00	-55.957497	-62.377506
-15.90	-55.957497	-62.321980
-15.80	-55.957497	-62.265639
-15.70	-55.957497	-62.199838
-15.60	-55.957497	-62.122714
-15.50	-55.957497	-62.038504
-15.40	-55.957497	-61.948188
-15.30	-55.957497	-61.856380
-15.20	-55.957497	-61.769941
-15.10	-55.957497	-61.690534
-15.00	-55.957497	-61.613184
-14.90	-55.957497	-61.537385
-14.80	-55.957497	-61.469966
-14.70	-55.957497	-61.408115
-14.60	-55.957497	-61.346101
-14.50	-55.957497	-61.286587
-14.40	-55.957497	-61.232994
-14.30	-55.957497	-61.184976
-14.20	-55.957497	-61.143860
-14.10	-55.957497	-61.113640
-14.00	-55.957497	-61.095850
-13.90	-55.957497	-61.084786
-13.80	-55.957497	-61.075448
-13.70	-55.957497	-61.067226
-13.60	-55.957497	-61.052512
-13.50	-55.957497	-61.029508
-13.40	-55.957497	-61.003397
-13.30	-55.957497	-60.975513
-13.20	-55.957497	-60.946555
-13.10	-55.957497	-60.917055
-13.00	-55.957497	-60.891101
-12.90	-55.957497	-60.870928
-12.80	-55.957497	-60.852020
-12.70	-55.957497	-60.833038
-12.60	-55.957497	-60.811168
-12.50	-55.957497	-60.780032
-12.40	-55.957497	-60.738803
-12.30	-55.957497	-60.694576
-12.20	-55.957497	-60.651458
-12.10	-55.957497	-60.603054
-12.00	-55.957497	-60.546412
-11.90	-55.957497	-60.485378
-11.80	-55.957497	-60.423976
-11.70	-55.957497	-60.366051
-11.60	-55.957497	-60.309991
-11.50	-55.957497	-60.253966
-11.40	-55.957497	-60.196880
-11.30	-55.957497	-60.134969
-11.20	-55.957497	-60.068413
-11.10	-55.957497	-60.003207
-11.00	-55.957497	-59.938121
-10.90	-55.957497	-59.869590
-10.80	-55.957497	-59.793709
-10.70	-55.957497	-59.705158
-10.60	-55.957497	-59.591792
-10.50	-55.957497	-59.378791
-10.40	-55.957497	-59.128744
-10.30	-55.957497	-59.124890
-10.20	-55.957497	-59.349898
-10.10	-55.957497	-59.642484
-10.00	-55.957497	-59.867191
-9.90	-55.957497	-59.980485
-9.80	-55.957497	-60.042512
-9.70	-55.957497	-60.085828
-9.60	-55.957497	-60.123388
-9.50	-55.957497	-60.158329
-9.40	-55.957497	-60.187719
-9.30	-55.957497	-60.208054
-9.20	-55.957497	-60.220002
-9.10	-55.957497	-60.228430
-9.00	-55.957497	-60.236085
-8.90	-55.957497	-60.246027
-8.80	-55.957497	-60.257495
-8.70	-55.957497	-60.268290
-8.60	-55.957497	-60.281141
-8.50	-55.957497	-60.300803
-8.40	-55.957497	-60.325564
-8.30	-55.957497	-60.348701
-8.20	-55.957497	-60.370431
-8.10	-55.957497	-60.394766
-8.00	-55.957497	-60.418009
-7.90	-55.957497	-60.436392
-7.80	-55.957393	-60.450118
-7.70	-55.957186	-60.463106
-7.60	-55.956980	-60.480963
-7.50	-55.956773	-60.504340
-7.40	-55.956566	-60.527604
-7.30	-55.956360	-60.542465
-7.20	-55.956153	-60.546903
-7.10	-55.955946	-60.540565
-7.00	-55.955739	-60.527778
-6.90	-55.955533	-60.514973
-6.80	-55.955326	-60.502269
-6.70	-55.955119	-60.493314
-6.60	-55.954913	-60.489424
-6.50	-55.954706	-60.485263
-6.40	-55.954499	-60.478328
-6.30	-55.954292	-60.466051
-6.20	-55.954086	-60.447089
-6.10	-55.953879	-60.426741
-6.00	-55.953672	-60.411639
-5.90	-55.953466	-60.402646
-5.80	-55.953259	-60.394346
-5.70	-55.953052	-60.384059
-5.60	-55.952845	-60.370672
-5.50	-55.952639	-60.354009
-5.40	-55.952432	-60.337900
-5.30	-55.952225	-60.315038
-5.20	-55.952019	-60.278414
-5.10	-55.951812	-60.238149
-5.00	-55.951605	-60.205308
-4.90	-55.951398	-60.181851
-4.80	-55.951192	-60.168266
-4.70	-55.950985	-60.160519
-4.60	-55.950778	-60.152593
-4.50	-55.950571	-60.139075
-4.40	-55.950365	-60.118881
-4.30	-55.950158	-60.095924
-4.20	-55.949951	-60.069078
-4.10	-55.949745	-60.041829
-4.00	-55.950582	-60.021233
-3.90	-55.952657	-60.007296
-3.80	-55.954732	-59.997595
-3.70	-55.956807	-59.989442
-3.60	-55.958882	-59.979341
-3.50	-55.960956	-59.965835
-3.40	-55.963031	-59.944503
-3.30	-55.965106	-59.917179
-3.20	-55.967181	-59.880242
-3.10	-55.969256	-59.827364
-3.00	-55.971330	-59.765856
-2.90	-55.973405	-59.705893
-2.80	-55.975480	-59.649546
-2.70	-55.977555	-59.597776
-2.60	-55.979630	-59.554339
-2.50	-55.981705	-59.519366
-2.40	-55.983779	-59.494281
-2.30	-55.985854	-59.479061
-2.20	-55.987929	-59.471130
-2.10	-55.990004	-59.465057
-2.00	-55.992079	-59.458441
-1.90	-55.994153	-59.455202
-1.80	-55.996228	-59.455674
-1.70	-55.998303	-59.457574
-1.60	-56.000378	-59.460963
-1.50	-56.002453	-59.467374
-1.40	-56.004527	-59.476962
-1.30	-56.006602	-59.485787
-1.20	-56.008677	-59.487794
-1.10	-56.010752	-59.478676
-1.00	-56.012827	-59.457666
-0.90	-56.014901	-59.427492
-0.80	-56.016976	-59.392107
-0.70	-56.019051	-59.352175
-0.60	-56.021126	-59.308006
-0.50	-56.023201	-59.262161
-0.40	-56.025276	-59.214991
-0.30	-56.027350	-59.168256
-0.20	-56.029425	-59.126366
-0.10	-56.031500	-59.087981
0.00	-56.033575	-59.052295
0.10	-56.035650	-59.024195
0.20	-56.037724	-58.998968
0.30	-56.039799	-58.973831
0.40	-56.041874	-58.956074
0.50	-56.033672	-58.947429
0.60	-55.969519	-58.949799
0.70	-55.905366	-58.966622
0.80	-55.841213	-58.997101
0.90	-55.777060	-59.034394
1.00	-55.712907	-59.072637
1.10	-55.648754	-59.110151
1.20	-55.584602	-59.133482
1.30	-55.520449	-59.138353
1.40	-55.456296	-59.132771
1.50	-55.392143	-59.119515
1.60	-55.327990	-59.104310
1.70	-55.263837	-59.088002
1.80	-55.199684	-59.066886
1.90	-55.135531	-59.035585
2.00	-55.071378	-58.973599
2.10	-55.007225	-58.799286
2.20	-54.480783	-58.622153
2.30	-53.950478	-58.651382
2.40	-53.420173	-58.885823
2.50	-52.889869	-59.193559
2.60	-52.359564	-59.426365
2.70	-51.217425	-59.567465
2.80	-50.023672	-59.658213
2.90	-48.829918	-59.725228
3.00	-46.077058	-59.778886
3.10	-42.945714	-59.821561
3.20	-42.572380	-59.856234
3.30	-34.413766	-59.888059
3.40	-33.553275	-59.919777
3.50	-32.692784	-59.952795
3.60	-31.870884	-59.989371
3.70	-32.771927	-60.028469
3.80	-33.672970	-60.062281
3.90	-34.986349	-60.085168
4.00	-36.317989	-60.096267
4.10	-37.649629	-60.099743
4.20	-38.981269	-60.100596
4.30	-40.958438	-60.099810
4.40	-43.498810	-60.099670
4.50	-46.039182	-60.103472
4.60	-47.666389	-60.110956
4.70	-49.017106	-60.119553
4.80	-49.747919	-60.124134
4.90	-49.969072	-60.118702
5.00	-50.000297	-60.106322
5.10	-49.942589	-60.091198
5.20	-49.884880	-60.075658
5.30	-49.827172	-60.062553
5.40	-49.769464	-60.052968
5.50	-49.711755	-60.048701
5.60	-49.654047	-60.050411
5.70	-49.075952	-60.059826
5.80	-47.958571	-60.079143
5.90	-47.360158	-60.101762
6.00	-46.956339	-60.116510
6.10	-47.040733	-60.121807
6.20	-47.125126	-60.123265
6.30	-47.209519	-60.122581
6.40	-47.401833	-60.120824
6.50	-47.676261	-60.119798
6.60	-47.950689	-60.118522
6.70	-48.225117	-60.120248
6.80	-48.232380	-60.124780
6.90	-48.174672	-60.124387
7.00	-48.116964	-60.118371
7.10	-48.059255	-60.112269
7.20	-48.001547	-60.107399
7.30	-47.943839	-60.104166
7.40	-47.886130	-60.105956
7.50	-47.706569	-60.110510
7.60	-47.450526	-60.111008
7.70	-47.194484	-60.105968
7.80	-46.938441	-60.097001
7.90	-46.682398	-60.079971
8.00	-46.665567	-60.051321
8.10	-47.069767	-60.016861
8.20	-47.473968	-59.983127
8.30	-47.878168	-59.951930
8.40	-47.994855	-59.923833
8.50	-47.855119	-59.898381
8.60	-47.715382	-59.870850
8.70	-47.575645	-59.839705
8.80	-47.435908	-59.799393
8.90	-47.296172	-59.742094
9.00	-47.156435	-59.662057
9.10	-47.016698	-59.535808
9.20	-46.876962	-59.309911
9.30	-48.044501	-59.202621
9.40	-48.211572	-59.172941
9.50	-48.378643	-59.395296
9.60	-48.545714	-59.558531
9.70	-48.712784	-59.664033
9.80	-48.879855	-59.719990
9.90	-49.046926	-59.740720
10.00	-49.213996	-59.742985
10.10	-49.381067	-59.737571
10.20	-49.508820	-59.728195
10.30	-49.494322	-59.717841
10.40	-49.479824	-59.708177
10.50	-49.465325	-59.703788
10.60	-49.450827	-59.702888
10.70	-49.436329	-59.703997
10.80	-49.421830	-59.708453
10.90	-49.407332	-59.713476
11.00	-49.234391	-59.721016
11.10	-49.058941	-59.721323
11.20	-48.883491	-59.708040
11.30	-48.616801	-59.694309
11.40	-48.236583	-59.681646
11.50	-47.856366	-59.670693
11.60	-47.476148	-59.665132
11.70	-47.095931	-59.662908
11.80	-46.897554	-59.661006
11.90	-47.171982	-59.659601
12.00	-47.446410	-59.660470
12.10	-47.720838	-59.659194
12.20	-47.995266	-59.653369
12.30	-48.269694	-59.647339
12.40	-48.388391	-59.643540
12.50	-48.416602	-59.644038
12.60	-48.444813	-59.644949
12.70	-48.473024	-59.639090
12.80	-46.056092	-59.625681
12.90	-45.128839	-59.604321
13.00	-45.071130	-59.563412
13.10	-45.013422	-59.466257
13.20	-44.955714	-59.198136
13.30	-44.898005	-59.205578
13.40	-46.515966	-59.225311
13.50	-47.020611	-59.532472
13.60	-47.525256	-59.753646
13.70	-48.029901	-59.869082
13.80	-48.518655	-59.869486
13.90	-48.897282	-59.689266
14.00	-49.203183	-59.539694
14.10	-49.245521	-59.546034
14.20	-49.287859	-59.793676
14.30	-49.330197	-60.063359
14.40	-49.372534	-60.242721
14.50	-49.414872	-60.318598
14.60	-49.457210	-60.351543
14.70	-49.499548	-60.371326
14.80	-49.511219	-60.385133
14.90	-49.520509	-60.398591
15.00	-49.529800	-60.417794
15.10	-49.539090	-60.432657
15.20	-49.548380	-60.437967
15.30	-49.557671	-60.442336
15.40	-49.566961	-60.443428
15.50	-49.576251	-60.438490
15.60	-49.585542	-60.431574
15.70	-49.594832	-60.423269
15.80	-49.581967	-60.412233
15.90	-49.095135	-60.399635
16.00	-48.608303	-60.382713
16.10	-48.121471	-60.362197
16.20	-47.939888	-60.345730
16.30	-47.925390	-60.333410
16.40	-47.910892	-60.321222
16.50	-47.896393	-60.310669
16.60	-47.881895	-60.302843
16.70	-47.867396	-60.294865
16.80	-47.852898	-60.288630
16.90	-48.001204	-60.288424
17.00	-48.379831	-60.292566
17.10	-48.567419	-60.299395
17.20	-48.567212	-60.307556
17.30	-48.567006	-60.316531
17.40	-48.566799	-60.328097
17.50	-48.713996	-60.343199
17.60	-48.880314	-60.362275
17.70	-49.020036	-60.385207
17.80	-49.159757	-60.411305
17.90	-49.299478	-60.438070
18.00	-49.293240	-60.462568
18.10	-48.996251	-60.484942
18.20	-48.699262	-60.498140
18.30	-48.402273	-60.500948
18.40	-48.157447	-60.500476
18.50	-47.921714	-60.497211
18.60	-47.685980	-60.493205
18.70	-47.450247	-60.492761
18.80	-47.214514	-60.495809
18.90	-47.277455	-60.500330
19.00	-47.551883	-60.507049
19.10	-47.935495	-60.514563
19.20	-48.365081	-60.520305
19.30	-49.092840	-60.525021
19.40	-49.904794	-60.529082
19.50	-50.112845	-60.534405
19.60	-50.112639	-60.540478
19.70	-50.112432	-60.543309
19.80	-50.112225	-60.540828
19.90	-50.112019	-60.532464
20.00	-50.111812	-60.520569
20.10	-50.111605	-60.506717
20.20	-50.111398	-60.486331
20.30	-50.111192	-60.459407
20.40	-50.110985	-60.435549
20.50	-50.110778	-60.406124
20.60	-49.904647	-60.365445
20.70	-49.668914	-60.319356
20.80	-49.433180	-60.271020
20.90	-48.762751	-60.227832
21.00	-47.331393	-60.188029
21.10	-47.171945	-60.144512
21.20	-47.242374	-60.097763
21.30	-47.312803	-60.053944
21.40	-47.383231	-60.017491
21.50	-47.453660	-59.988292
21.60	-47.524089	-59.967542
21.70	-47.594517	-59.957143
21.80	-48.775161	-59.957178
21.90	-48.519118	-59.963237
22.00	-48.263075	-59.968529
22.10	-48.007033	-59.965344
22.20	-47.750990	-59.949478
22.30	-47.523078	-59.927004
22.40	-47.522871	-59.893146
22.50	-47.522665	-59.834584
22.60	-47.522458	-59.733076
22.70	-47.444195	-59.506650
22.80	-47.283667	-59.295665
22.90	-47.123139	-59.278400
23.00	-46.962611	-59.485702
23.10	-46.802083	-59.751290
23.20	-46.641555	-59.938781
23.30	-46.481027	-60.018807
23.40	-47.624334	-60.036739
23.50	-48.436288	-60.022111
23.60	-48.874989	-59.991336
23.70	-47.978757	-59.951879
23.80	-47.623336	-59.906158
23.90	-47.623130	-59.854578
24.00	-47.622923	-59.798095
24.10	-47.622716	-59.733419
24.20	-47.943244	-59.659828
24.30	-48.270158	-59.573425
24.40	-48.597072	-59.448444
24.50	-48.923985	-59.204096
24.60	-49.250899	-58.930706
24.70	-49.522951	-58.856802
24.80	-49.662672	-58.965069
24.90	-49.802393	-59.127491
25.00	-49.942114	-59.139757
25.10	-50.009288	-58.835664
25.20	-50.028050	-58.798149
25.30	-50.046813	-58.718877
25.40	-50.065576	-58.904341
25.50	-50.084339	-58.926907
25.60	-49.986169	-58.787048
25.70	-49.231070	-58.774652
25.80	-48.475970	-58.857182
25.90	-47.720870	-58.980288
26.00	-49.055343	-58.785184
26.10	-47.975640	-58.868902
26.20	-46.895936	-58.907833
26.30	-46.250089	-59.212057
26.40	-46.192380	-59.487061
26.50	-46.134672	-59.673853
26.60	-46.076964	-59.757256
26.70	-46.506193	-59.793809
26.80	-47.035498	-59.808747
26.90	-49.099243	-59.813070
27.00	-49.477870	-59.816626
27.10	-49.702279	-59.820821
27.20	-49.869350	-59.826160
27.30	-50.036421	-59.834251
27.40	-50.200794	-59.843915
27.50	-50.243132	-59.858128
27.60	-50.285470	-59.876581
27.70	-50.327807	-59.895327
27.80	-50.370145	-59.913917
27.90	-50.412483	-59.933794
28.00	-50.454821	-59.953732
28.10	-50.497159	-59.971312
28.20	-50.401629	-59.989022
28.30	-50.255964	-60.002896
28.40	-50.110299	-60.012564
28.50	-49.926093	-60.021181
28.60	-49.566852	-60.030529
28.70	-49.207611	-60.043327
28.80	-48.848369	-60.058833
28.90	-48.987195	-60.074659
29.00	-49.314109	-60.089376
29.10	-49.553232	-60.100650
29.20	-49.774385	-60.105610
29.30	-50.196127	-60.110117
29.40	-50.609176	-60.119340
29.50	-50.608969	-60.133924
29.60	-50.608763	-60.151845
29.70	-50.608556	-60.170052
29.80	-50.631867	-60.187051
29.90	-50.688278	-60.199944
30.00	-50.619663	-60.207293
30.10	-50.464095	-60.205737
30.20	-50.308528	-60.192189
30.30	-50.152961	-60.174446
30.40	-49.997393	-60.158908
30.50	-49.852380	-60.143315
30.60	-49.736265	-60.128199
30.70	-49.620149	-60.115614
30.80	-49.504034	-60.104955
30.90	-49.387918	-60.097542
31.00	-49.271803	-60.093729
31.10	-49.128586	-60.092141
31.20	-48.982920	-60.086865
31.30	-48.837255	-60.078091
31.40	-48.658780	-60.073125
31.50	-48.423047	-60.073645
31.60	-48.187314	-60.081281
31.70	-47.951580	-60.097944
31.80	-47.715847	-60.120387
31.90	-47.578491	-60.140467
32.00	-48.344973	-60.154615
32.10	-49.070024	-60.164199
32.20	-49.291177	-60.168753
32.30	-49.501067	-60.164912
32.40	-49.668138	-60.142098
32.50	-49.835209	-60.069719
32.60	-50.002279	-59.839761
32.70	-50.196440	-59.702705
32.80	-50.417593	-59.683003
32.90	-50.638746	-59.910032
33.00	-50.859899	-60.129604
33.10	-50.368943	-60.259945
33.20	-49.659821	-60.300593
33.30	-48.950699	-60.299969
33.40	-48.241578	-60.287448
33.50	-47.532456	-60.272361
33.60	-49.945714	-60.194723
33.70	-48.828333	-59.906726
33.80	-47.710952	-59.307911
33.90	-47.007904	-58.439559
34.00	-47.512549	-57.331847
34.10	-48.017194	-55.956377
34.20	-48.521839	-54.353883
34.30	-49.155211	-52.522137
34.40	-50.012015	-50.562813
34.50	-50.498562	-48.259351
34.60	-50.180934	-45.697837
34.70	-49.863306	-40.963827
34.80	-49.545678	-33.901012
34.90	-49.228050	-26.382561
35.00	-48.956658	-24.174326
35.10	-49.078030	-28.845101
35.20	-49.199403	-37.462593
35.30	-49.320775	-47.191745
35.40	-49.442147	-54.242662
35.50	-49.563520	-57.894117
35.60	-49.684892	-59.078511
35.70	-49.806264	-59.005978
35.80	-49.927637	-58.821447
35.90	-50.049009	-58.452143
36.00	-50.170381	-58.296275
36.10	-50.264353	-58.019329
36.20	-49.873605	-57.625959
36.30	-49.482856	-57.147516
36.40	-49.092108	-56.635738
36.50	-49.353789	-56.102559
36.60	-50.027404	-55.543296
36.70	-50.225897	-54.967639
36.80	-50.131791	-54.386070
36.90	-50.037686	-53.778554
37.00	-49.943581	-53.109764
37.10	-49.849475	-52.306932
37.20	-49.755370	-51.220788
37.30	-49.661265	-50.206667
37.40	-49.567159	-49.212917
37.50	-49.473054	-48.363236
37.60	-49.378949	-46.797554
37.70	-49.284843	-45.554387
37.80	-49.190738	-44.297622
37.90	-49.096633	-44.302945
38.00	-49.002527	-44.074857
38.10	-49.062441	-44.094993
38.20	-49.466642	-44.213633
38.30	-49.870842	-44.445105
38.40	-50.275042	-45.843089
38.50	-50.382254	-46.538325
38.60	-50.161682	-47.433360
38.70	-49.941109	-48.252057
38.80	-49.720537	-49.354182
38.90	-49.499965	-50.541112
39.00	-49.279393	-51.074720
39.10	-49.058821	-51.294791
39.20	-48.931582	-51.268392
39.30	-48.923215	-51.403980
39.40	-48.914849	-51.494846
39.50	-48.906482	-51.190947
39.60	-48.898116	-51.115457
39.70	-48.889749	-51.289831
39.80	-48.881383	-51.943806
39.90	-48.873016	-52.773033
40.00	-48.864649	-53.490553
40.10	-48.856283	-53.787396
40.20	-48.847916	-53.807149
40.30	-48.839550	-53.305443
40.40	-48.831183	-52.555211
40.50	-50.015700	-51.799767
40.60	-49.749462	-51.207791
40.70	-49.483224	-50.949402
40.80	-49.216985	-50.631433
40.90	-48.950747	-50.382659
41.00	-48.684509	-50.141157
41.10	-48.418271	-50.436281
41.20	-48.269616	-50.846898
41.30	-48.200299	-51.268462
41.40	-48.130982	-51.312737
41.50	-48.061666	-50.996182
41.60	-47.992349	-50.385240
41.70	-47.923032	-49.082337
41.80	-47.853716	-47.405930
41.90	-47.784399	-46.535189
42.00	-47.715082	-45.802837
42.10	-49.088190	-46.863873
42.20	-49.214158	-47.720812
42.30	-49.340126	-48.938402
42.40	-49.466095	-49.880340
42.50	-49.592063	-50.565402
42.60	-49.718031	-51.154762
42.70	-49.843999	-51.170860
42.80	-49.946219	-51.381672
42.90	-49.725647	-51.347398
43.00	-49.505075	-51.554376
43.10	-49.284503	-51.543523
43.20	-49.063931	-51.161778
43.30	-48.843358	-50.993966
43.40	-48.622786	-49.988572
43.50	-48.395550	-49.535663
43.60	-47.973036	-49.425345
43.70	-47.550522	-49.843962
43.80	-47.128009	-50.837386
43.90	-47.560837	-51.617430
44.00	-48.548577	-52.060543
44.10	-49.445944	-52.220148
44.20	-50.257898	-51.987565
44.30	-50.708791	-51.756158
44.40	-50.765201	-51.583963
44.50	-50.821611	-51.942434
44.60	-50.878021	-52.164591
44.70	-50.934432	-52.197513
44.80	-50.990821	-51.635035
44.90	-51.028456	-50.995361
45.00	-51.066091	-50.716497
45.10	-51.103726	-50.634695
45.20	-51.141361	-50.797034
45.30	-51.178996	-50.360663
45.40	-51.152777	-50.365519
45.50	-51.071816	-50.633595
45.60	-50.990855	-51.316521
45.70	-50.909893	-51.681173
45.80	-50.828932	-51.629718
45.90	-50.747971	-51.320249
46.00	-50.667009	-51.093823
46.10	-50.586048	-50.933371
46.20	-50.505087	-50.554973
46.30	-50.132101	-50.392148
46.40	-49.546774	-49.892434
46.50	-48.961446	-49.857567
46.60	-48.596507	-49.732713
46.70	-49.000708	-49.876871
46.80	-49.404908	-49.426593
46.90	-49.809108	-48.329574
47.00	-50.082385	-46.833706
47.10	-50.150015	-46.553380
47.20	-50.217644	-46.580874
47.30	-50.285273	-48.301344
47.40	-50.352903	-49.542350
47.50	-50.420532	-50.641945
47.60	-50.488161	-51.174175
47.70	-50.555790	-51.156690
47.80	-50.623420	-51.247073
47.90	-50.674292	-51.602263
48.00	-50.674086	-51.853199
48.10	-50.673879	-51.658936
48.20	-50.673672	-51.300542
48.30	-50.673466	-51.132447
48.40	-50.673259	-51.194604
48.50	-50.673052	-51.196021
48.60	-50.672845	-50.630983
48.70	-50.672639	-50.217667
48.80	-50.672432	-49.577311
48.90	-50.672225	-49.034691
49.00	-50.672019	-48.454576
49.10	-50.671812	-48.881010
49.20	-50.671605	-49.458393
49.30	-50.671398	-50.649670
49.40	-50.671192	-50.972694
49.50	-50.670985	-51.175472
49.60	-50.670778	-51.244371
49.70	-50.670571	-51.202880
49.80	-50.670365	-51.258790
49.90	-50.670158	-51.059274
50.00	-50.669951	-50.934077
50.10	-50.309264	-50.824673
50.20	-49.600142	-50.635903
50.30	-48.891021	-50.100314
50.40	-48.181899	-49.645431
50.50	-47.472777	-49.600204
50.60	-48.997455	-50.046191
50.70	-49.271883	-50.753487
50.80	-49.546311	-51.178929
50.90	-49.820738	-50.968843
51.00	-50.095166	-50.299531
51.10	-50.369594	-49.778849
51.20	-50.526491	-49.430289
51.30	-50.624796	-49.729843
51.40	-50.723100	-49.365596
51.50	-50.821405	-49.517978
51.60	-50.919710	-49.499434
51.70	-51.018014	-50.148181
51.80	-51.116319	-50.933936
51.90	-51.195037	-51.480898
52.00	-51.232672	-52.123796
52.10	-51.270307	-52.700771
52.20	-51.307942	-53.333134
52.30	-51.345577	-53.731324
52.40	-51.383211	-53.937218
52.50	-51.420846	-53.969547
52.60	-51.458481	-53.853255
52.70	-51.496116	-53.332805
52.80	-51.533751	-52.547938
52.90	-51.571386	-51.929742
53.00	-51.348179	-51.494062
53.10	-50.729467	-51.022569
53.20	-50.962344	-50.748697
53.30	-51.516132	-50.273601
53.40	-52.069919	-50.393204
53.50	-52.623706	-50.119681
53.60	-52.908621	-49.759396
53.70	-53.129774	-49.285464
53.80	-53.350927	-48.978279
53.90	-53.562402	-48.981433
54.00	-53.650776	-49.157074
54.10	-53.739149	-49.149570
54.20	-53.827523	-48.654754
54.30	-53.915896	-48.864113
54.40	-54.004269	-48.525737
54.50	-54.092643	-48.656400
54.60	-54.181016	-48.641071
54.70	-54.269390	-48.635019
54.80	-54.357763	-48.603629
54.90	-54.446137	-49.151763
55.00	-54.534510	-49.672805
55.10	-54.622884	-50.886721
55.20	-54.705144	-51.559289
55.30	-54.767792	-52.305736
55.40	-54.830439	-52.621481
55.50	-54.893086	-52.872340
55.60	-54.955734	-52.473562
55.70	-55.018381	-51.677004
55.80	-55.081028	-50.777391
55.90	-55.143675	-50.311086
56.00	-55.206323	-50.216855
56.10	-55.268970	-50.840830
56.20	-55.331617	-51.253549
56.30	-55.394265	-51.850793
56.40	-55.456912	-52.354038
56.50	-55.519559	-52.568574
56.60	-55.582207	-52.477662
56.70	-55.644854	-52.028541
56.80	-55.707501	-51.479949
56.90	-55.734181	-50.535783
57.00	-55.751488	-50.296330
57.10	-55.768795	-49.530198
57.20	-55.786102	-49.352217
57.30	-55.803409	-49.092667
57.40	-55.820717	-48.878771
57.50	-55.838024	-48.373832
57.60	-55.855331	-48.022770
57.70	-55.872638	-47.962023
57.80	-55.889945	-48.212340
57.90	-55.907252	-48.545595
58.00	-55.924560	-49.239324
58.10	-55.941867	-50.105631
58.20	-55.959174	-51.144813
58.30	-55.976481	-52.156822
58.40	-55.993788	-52.392082
58.50	-56.011095	-51.964178
58.60	-56.028402	-50.416827
58.70	-56.045710	-50.235088
58.80	-56.063017	-50.092174
58.90	-56.080324	-51.284254
59.00	-56.097631	-52.263466
59.10	-56.114938	-52.636821
59.20	-56.129939	-52.987345
59.30	-56.134915	-53.033172
59.40	-56.139892	-53.067781
59.50	-56.144869	-52.781444
59.60	-56.149845	-52.473325
59.70	-56.154822	-51.862822
59.80	-56.159798	-51.339197
59.90	-56.164775	-51.311849
60.00	-56.169751	-51.162909
60.10	-56.174728	-51.337524
60.20	-56.179704	-51.146577
60.30	-56.184681	-50.928225
60.40	-56.189657	-50.718030
60.50	-56.194634	-50.717074
60.60	-56.199610	-50.721522
60.70	-56.204587	-50.193855
60.80	-56.209563	-49.735532
60.90	-56.214540	-48.889346
61.00	-56.219516	-49.005462
61.10	-56.224493	-49.614119
61.20	-56.229469	-50.352077
61.30	-56.234446	-50.829086
61.40	-56.239423	-50.922006
61.50	-56.244399	-51.394785
61.60	-56.249376	-52.264786
61.70	-56.254352	-53.386582
61.80	-56.259329	-54.043649
61.90	-56.264305	-54.076331
62.00	-56.269282	-53.784949
62.10	-56.274258	-53.492088
62.20	-56.279235	-52.925938
62.30	-56.284211	-52.793856
62.40	-56.289188	-52.316895
62.50	-56.294164	-52.050881
62.60	-56.299141	-52.038060
62.70	-56.304117	-52.020437
62.80	-56.309094	-51.900761
62.90	-56.314070	-51.140541
63.00	-56.319047	-50.481957
63.10	-56.324023	-49.990480
63.20	-56.327419	-50.215249
63.30	-56.327212	-50.677929
63.40	-56.327006	-51.194353
63.50	-56.326799	-51.548936
63.60	-56.326592	-51.736636
63.70	-56.326385	-52.198063
63.80	-56.326179	-52.375802
63.90	-56.325972	-52.528566
64.00	-56.325765	-52.274288
64.10	-56.325559	-51.736140
64.20	-56.325352	-50.966537
64.30	-56.325145	-50.973044
64.40	-56.324938	-51.042374
64.50	-56.324732	-51.829618
64.60	-56.324525	-52.219891
64.70	-56.324318	-52.461631
64.80	-56.324112	-52.563603
64.90	-56.323905	-52.463146
65.00	-56.323698	-51.916539
65.10	-56.323491	-51.289942
65.20	-56.323285	-50.779829
65.30	-56.323078	-50.715908
65.40	-56.322871	-51.059376
65.50	-56.322665	-51.069043
65.60	-56.322458	-51.141573
65.70	-56.322251	-51.011547
65.80	-56.322044	-51.058005
65.90	-56.321838	-51.065507
66.00	-56.321631	-51.094667
66.10	-56.321424	-50.290241
66.20	-56.321217	-49.752901
66.30	-56.321011	-49.634453
66.40	-56.320804	-50.426352
66.50	-56.320597	-51.445479
66.60	-56.320391	-52.406578
66.70	-56.320184	-52.560932
66.80	-56.319977	-52.551057
66.90	-56.319770	-51.702339
67.00	-56.319564	-51.195479
67.10	-56.319357	-50.844415
67.20	-56.319150	-50.863284
67.30	-56.318944	-51.375635
67.40	-56.318737	-51.781222
67.50	-56.318530	-51.915424
67.60	-56.318323	-51.502999
67.70	-56.318117	-51.035042
67.80	-56.317910	-50.635445
67.90	-56.317703	-50.597880
68.00	-56.317497	-50.911161
68.10	-56.317290	-50.614600
68.20	-56.317083	-49.991159
68.30	-56.316876	-49.439454
68.40	-56.316670	-49.129036
68.50	-56.316463	-49.176996
68.60	-56.316256	-50.010814
68.70	-56.316050	-50.860803
68.80	-56.315843	-51.927419
68.90	-56.315636	-52.645656
69.00	-56.315429	-52.465082
69.10	-56.315223	-51.951484
69.20	-56.315016	-51.316572
69.30	-56.314809	-51.414134
69.40	-56.314603	-51.709477
69.50	-56.314396	-51.786333
69.60	-56.314189	-51.579118
69.70	-56.313982	-51.303088
69.80	-56.313776	-51.327837
69.90	-56.313569	-51.167439
70.00	-56.313362	-50.960268
70.10	-56.313155	-50.917585
70.20	-56.312949	-50.777970
70.30	-56.312742	-50.755095
70.40	-56.312535	-50.851280
70.50	-56.312329	-50.771636
70.60	-56.312122	-51.236394
70.70	-56.311915	-51.126869
70.80	-56.311708	-51.390698
70.90	-56.311502	-51.429615
71.00	-56.311295	-51.677000
71.10	-56.311088	-51.751659
71.20	-56.310882	-51.899312
71.30	-56.310675	-52.048296
71.40	-56.310468	-52.506120
71.50	-56.310261	-52.822958
71.60	-56.308511	-52.596462
71.70	-56.306719	-51.913792
71.80	-56.304927	-51.234352
71.90	-56.303135	-50.938201
72.00	-56.301343	-50.623104
72.10	-56.299551	-50.817405
72.20	-56.297759	-50.244916
72.30	-56.295967	-49.555044
72.40	-56.294175	-49.219445
72.50	-56.292383	-49.093329
72.60	-56.290591	-49.655450
72.70	-56.288799	-50.722435
72.80	-56.287007	-51.508874
72.90	-56.285215	-52.269614
73.00	-56.283423	-52.367271
73.10	-56.281631	-51.785557
73.20	-56.279840	-51.155716
73.30	-56.278048	-50.492601
73.40	-56.276256	-50.161005
73.50	-56.274464	-49.923163
73.60	-56.272672	-49.200036
73.70	-56.270880	-49.027394
73.80	-56.269088	-49.272171
73.90	-56.267296	-49.961223
74.00	-56.265504	-50.491073
74.10	-56.263712	-51.013516
74.20	-56.261920	-50.582418
74.30	-56.260128	-50.463588
74.40	-56.258336	-50.199659
74.50	-56.256544	-50.189119
74.60	-56.254752	-50.717519
74.70	-56.252960	-50.813200
74.80	-56.251168	-51.533169
74.90	-56.249376	-51.518251
75.00	-56.247585	-51.947522
75.10	-56.245793	-51.900161
75.20	-56.244001	-52.273532
75.30	-56.242209	-52.013159
75.40	-56.240417	-52.145708
75.50	-56.238625	-52.327368
75.60	-56.236833	-52.825261
75.70	-56.235041	-53.647455
75.80	-56.233249	-53.993253
75.90	-56.231457	-54.233165
76.00	-56.229665	-53.990350
76.10	-56.227873	-53.165122
76.20	-56.226081	-51.765292
76.30	-56.224289	-51.100239
76.40	-56.222497	-50.858252
76.50	-56.220705	-51.377485
76.60	-56.218913	-51.664982
76.70	-56.217121	-50.841983
76.80	-56.215330	-50.381558
76.90	-56.213538	-49.677814
77.00	-56.211746	-49.394735
77.10	-56.209954	-49.699530
77.20	-56.208162	-49.859474
77.30	-56.206370	-49.846146
77.40	-56.204578	-50.058461
77.50	-56.202786	-50.214178
77.60	-56.200994	-50.404411
77.70	-56.199202	-50.539300
77.80	-56.197410	-49.854972
77.90	-56.195618	-49.627682
78.00	-56.193826	-49.190749
78.10	-56.193259	-49.630866
78.20	-56.193052	-50.032825
78.30	-56.192845	-50.629048
78.40	-56.192639	-51.268418
78.50	-56.192432	-51.875712
78.60	-56.192225	-51.757973
78.70	-56.192019	-51.986830
78.80	-56.191812	-51.873539
78.90	-56.191605	-51.794247
79.00	-56.191398	-51.974570
79.10	-56.191192	-51.791327
79.20	-56.190985	-51.803996
79.30	-56.190778	-52.330360
79.40	-56.190571	-53.053971
79.50	-56.190365	-54.013905
79.60	-56.190158	-54.564010
79.70	-56.189951	-54.566096
79.80	-56.189745	-54.207475
79.90	-56.189538	-53.691739
80.00	-56.189331	-53.407925
80.10	-56.189124	-53.085988
80.20	-56.188918	-52.964914
80.30	-56.188711	-52.986235
80.40	-56.188504	-52.867720
80.50	-56.188298	-52.711404
80.60	-56.188091	-52.407751
80.70	-56.187884	-51.646719
80.80	-56.187677	-50.865583
80.90	-56.187471	-49.604175
81.00	-56.187264	-48.275325
81.10	-56.187057	-48.231109
81.20	-56.186851	-48.388217
81.30	-56.186644	-49.029375
81.40	-56.186437	-49.464482
81.50	-56.186230	-49.475461
81.60	-56.186024	-49.233371
81.70	-56.185817	-48.936080
81.80	-56.185610	-49.176633
81.90	-56.185404	-49.715107
82.00	-56.185197	-50.458823
82.10	-56.184990	-51.527592
82.20	-56.184783	-52.445073
82.30	-56.184577	-53.320955
82.40	-56.184370	-53.739148
82.50	-56.184163	-53.305511
82.60	-56.183957	-52.669222
82.70	-56.183750	-51.684979
82.80	-56.183543	-50.905179
82.90	-56.183336	-50.529213
83.00	-56.183130	-50.597691
83.10	-56.182923	-50.695703
83.20	-56.182716	-51.540212
83.30	-56.182509	-51.892345
83.40	-56.182303	-52.383267
83.50	-56.180575	-52.721578
83.60	-56.176801	-53.063875
83.70	-56.173027	-53.483895
83.80	-56.169252	-53.894039
83.90	-56.165478	-54.156332
84.00	-56.161703	-54.200207
84.10	-56.157929	-54.032154
84.20	-56.154154	-53.768463
84.30	-56.150380	-53.231582
84.40	-56.146606	-52.927885
84.50	-56.142831	-52.211390
84.60	-56.139057	-51.869410
84.70	-56.135282	-51.561494
84.80	-56.131508	-51.561828
84.90	-56.127733	-51.700189
85.00	-56.123959	-51.485557
85.10	-56.120184	-51.040916
85.20	-56.116410	-49.817862
85.30	-56.112636	-48.593449
85.40	-56.108861	-48.070051
85.50	-56.105087	-48.878364